 Gaussian 16, Revision B.01,
 Gaussian 16:  ES64L-G16RevB.01 20-Dec-2017

 ----------------------------------------------------------------------
 #T wB97XD/def2svpp opt=tight freq int(grid=ultrafine) scf=(verytight,q
 c)
 ----------------------------------------------------------------------
 --------------
 Comment gs min
 --------------
 Symbolic Z-matrix:
 Charge =  0 Multiplicity = 1

 SCF Done:  E(RwB97XD) =  -383.652445280     a.u. after    7 cycles
 SCF Done:  E(RwB97XD) =  -383.655674722     a.u. after    8 cycles
 SCF Done:  E(RwB97XD) =  -383.656133795     a.u. after    9 cycles
 SCF Done:  E(RwB97XD) =  -383.656469001     a.u. after    9 cycles
 SCF Done:  E(RwB97XD) =  -383.656647231     a.u. after    7 cycles
 SCF Done:  E(RwB97XD) =  -383.656720784     a.u. after    7 cycles
 SCF Done:  E(RwB97XD) =  -383.656764737     a.u. after    6 cycles
 SCF Done:  E(RwB97XD) =  -383.656792547     a.u. after    5 cycles
 SCF Done:  E(RwB97XD) =  -383.656809573     a.u. after    5 cycles
 SCF Done:  E(RwB97XD) =  -383.656813270     a.u. after    3 cycles
 SCF Done:  E(RwB97XD) =  -383.656814597     a.u. after    3 cycles
 SCF Done:  E(RwB97XD) =  -383.656814703     a.u. after    2 cycles
 SCF Done:  E(RwB97XD) =  -383.656814748     a.u. after    2 cycles
 SCF Done:  E(RwB97XD) =  -383.656814751     a.u. after    2 cycles
 SCF Done:  E(RwB97XD) =  -383.656814752     a.u. after    2 cycles
 SCF Done:  E(RwB97XD) =  -383.656814753     a.u. after    2 cycles
 SCF Done:  E(RwB97XD) =  -383.656814752     a.u. after    2 cycles
 SCF Done:  E(RwB97XD) =  -383.656814754     a.u. after    2 cycles
 Optimization completed.
    -- Stationary point found.

 1\1\GINC-C242\FOpt\RwB97XD\def2SVPP\C4H10O3\PETERCHAO1\04-Aug-2022\0\\
 #T wB97XD/def2svpp opt=tight freq int(grid=ultrafine) scf=(verytight,q
 c)\\Comment gs min\\0,1\O,2.9032947628,-0.5826938957,1.0450125903\C,2.
 2742243753,0.1084008244,-0.0276431744\C,2.8325309689,1.5248431802,-0.0
 898619729\C,2.4102567414,2.3593145922,1.1271079588\O,2.9475589083,1.89
 03750829,2.3344142793\C,4.3642971883,1.5186247381,-0.2421570228\O,4.83
 33176024,0.5503828724,-1.1479289037\H,2.5079367177,-1.4585578967,1.143
 0579266\H,1.17688445,0.1470958779,0.1225213215\H,2.4715175713,-0.40782

 Normal termination of Gaussian 16 at Thu Aug  4 16:20:19 2022.

 ---------------------------------------------------------------------
 #T Geom=AllCheck Guess=TCheck SCRF=Check GenChk RwB97XD/def2SVPP Freq
 ---------------------------------------------------------------------
 Structure from the checkpoint file:  "/scratch/user/peterchao1/peterchao1/6097804_1659647584000000886883764/Gau-7175.chk"
 --------------
 Comment gs min
 --------------
 Charge =  0 Multiplicity = 1

                         Standard orientation:
 ---------------------------------------------------------------------
 Center     Atomic      Atomic             Coordinates (Angstroms)
 Number     Number       Type             X           Y           Z
 ---------------------------------------------------------------------
      1          8           0       -0.000927    1.643373   -0.542145
      2          6           0        0.191025    1.135229    0.772722
      3          6           0       -0.011607   -0.374791    0.746871
      4          6           0       -1.472397   -0.750387    0.462807
      5          8           0       -1.900789   -0.379974   -0.819949
      6          6           0        0.932035   -1.050902   -0.264047
      7          8           0        2.237846   -0.528912   -0.247329
      8          1           0        0.052832    2.607729   -0.528496
      9          1           0       -0.528946    1.595375    1.478490
     10          1           0        1.213146    1.363818    1.127522
     11          1           0        0.239408   -0.730908    1.763018
     12          1           0       -2.115428   -0.299083    1.250106
     13          1           0       -1.595938   -1.845255    0.540260
     14          1           0       -1.519505    0.492223   -1.016551
     15          1           0        0.484252   -0.982512   -1.271570
     16          1           0        1.013944   -2.122603   -0.017209
     17          1           0        2.232857    0.290425   -0.760300
 ---------------------------------------------------------------------

 SCF Done:  E(RwB97XD) =  -383.656814754     a.u. after    1 cycles

 The electronic state is 1-A.
 Alpha  occ. eigenvalues --  -19.28343 -19.24436 -19.22986 -10.35318 -10.33201
 Alpha  occ. eigenvalues --  -10.32930 -10.29894  -1.14241  -1.10708  -1.09632
 Alpha  occ. eigenvalues --   -0.88615  -0.77704  -0.75357  -0.66554  -0.64258
 Alpha  occ. eigenvalues --   -0.60473  -0.58489  -0.54875  -0.53988  -0.50475
 Alpha  occ. eigenvalues --   -0.49866  -0.48893  -0.47132  -0.43875  -0.40557
 Alpha  occ. eigenvalues --   -0.40030  -0.37061  -0.36026  -0.33247
 Alpha virt. eigenvalues --    0.10637   0.14747   0.16527   0.17700   0.19303
 Alpha virt. eigenvalues --    0.20049   0.22043   0.22175   0.24609   0.25306
 Alpha virt. eigenvalues --    0.27092   0.28888   0.29717   0.31248   0.34809

 Mulliken charges:
               1
     1  O   -0.514271
     2  C   -0.018873
     3  C   -0.274406
     4  C    0.059356
     5  O   -0.509320
     6  C    0.037143
     7  O   -0.491814
     8  H    0.332252
     9  H    0.104636
    10  H    0.114897
    11  H    0.106075
    12  H    0.083112
    13  H    0.103678
    14  H    0.326240
    15  H    0.112102
    16  H    0.106999
    17  H    0.322195
 Sum of Mulliken charges =   0.00000

 Dipole moment (field-independent basis, Debye):
    X=              0.3378    Y=              3.2004    Z=              1.3219  Tot=              3.4791
  Exact polarizability:  51.189   1.723  54.725  -1.107  -0.810  48.558
 Approx polarizability:  51.893   1.548  55.868   0.649  -2.338  53.376
   1 Symmetry operations used in ECPInt.
 ECPInt:  NShTT=    1953 NPrTT=    7871 LenC2=    1943 LenP2D=    6386.
 LDataN:  DoStor=T MaxTD1= 6 Len=  172
 Calling FoFJK, ICntrl=    100127 FMM=F ISym2X=0 I1Cent= 0 IOpClX= 0 NMat=1 NMatS=1 NMatT=0.
 Full mass-weighted force constant matrix:
 Low frequencies ---  -10.5128   -6.6508   -0.0011   -0.0010   -0.0005    9.1958
 Low frequencies ---   51.2288  119.4790  178.1935
 Diagonal vibrational polarizability:

                      1                      2                      3
                      A                      A                      A
 Frequencies --     51.1778               119.4746               178.1918
 Red. masses --      3.7712                 3.6463                 3.3321
 Frc consts  --      0.0058                 0.0307                 0.0623
 IR Inten    --      5.2068                 1.9375                 4.9981

                      4                      5                      6
                      A                      A                      A
 Frequencies --    251.7362               271.0067               347.8017
 Red. masses --      3.1122                 3.5707                 1.4704
 Frc consts  --      0.1162                 0.1545                 0.1048
 IR Inten    --     10.3540                 5.0699                50.5351

                      7                      8                      9
                      A                      A                      A
 Frequencies --    368.0415               403.2568               445.8307
 Red. masses --      2.6993                 1.7978                 1.1081
 Frc consts  --      0.2154                 0.1722                 0.1298
 IR Inten    --     17.5130                11.6574               115.2258

                     10                     11                     12
                      A                      A                      A
 Frequencies --    557.6700               570.5090               703.7924
 Red. masses --      2.9629                 1.1384                 2.5255
 Frc consts  --      0.5429                 0.2183                 0.7370
 IR Inten    --     11.7484               218.3359                10.3725

                     13                     14                     15
                      A                      A                      A
 Frequencies --    807.2028               947.1926               959.5702
 Red. masses --      2.8861                 1.7821                 1.7091
 Frc consts  --      1.1080                 0.9420                 0.9272
 IR Inten    --      0.6799                11.4264                 2.4978

                     16                     17                     18
                      A                      A                      A
 Frequencies --   1001.7680              1030.1259              1111.4031
 Red. masses --      1.8370                 2.0722                 2.0443
 Frc consts  --      1.0862                 1.2956                 1.4878
 IR Inten    --     26.0185                 1.0941                67.0469

                     19                     20                     21
                      A                      A                      A
 Frequencies --   1141.4922              1164.3683              1184.7424
 Red. masses --      5.1856                 1.8716                 2.8217
 Frc consts  --      3.9810                 1.4950                 2.3335
 IR Inten    --     81.3127               113.3965                 4.6617

                     22                     23                     24
                      A                      A                      A
 Frequencies --   1201.4187              1261.8645              1272.6955
 Red. masses --      1.1441                 1.2539                 1.1825
 Frc consts  --      0.9730                 1.1764                 1.1285
 IR Inten    --     53.3410                37.6819                15.1485

                     25                     26                     27
                      A                      A                      A
 Frequencies --   1291.5555              1337.2517              1395.5379
 Red. masses --      1.1332                 1.4411                 1.3255
 Frc consts  --      1.1138                 1.5183                 1.5209
 IR Inten    --     16.5729                 1.4780                 1.8351

                     28                     29                     30
                      A                      A                      A
 Frequencies --   1403.1023              1416.5032              1434.3690
 Red. masses --      1.3977                 1.2207                 1.4357
 Frc consts  --      1.6212                 1.4431                 1.7403
 IR Inten    --      3.7865                29.0820                25.4329

                     31                     32                     33
                      A                      A                      A
 Frequencies --   1476.3236              1483.6767              1515.0891
 Red. masses --      1.5372                 1.2528                 1.0882
 Frc consts  --      1.9740                 1.6249                 1.4717
 IR Inten    --      8.5871                98.5844                 2.3836

                     34                     35                     36
                      A                      A                      A
 Frequencies --   1517.1900              1533.6759              2972.1640
 Red. masses --      1.0844                 1.0910                 1.0728
 Frc consts  --      1.4707                 1.5119                 5.5835
 IR Inten    --      4.7725                 6.6864                80.4241

                     37                     38                     39
                      A                      A                      A
 Frequencies --   3014.4353              3054.2040              3060.2897
 Red. masses --      1.0619                 1.0627                 1.0862
 Frc consts  --      5.6851                 5.8405                 5.9938
 IR Inten    --     50.5785                20.1769                31.3257

                     40                     41                     42
                      A                      A                      A
 Frequencies --   3073.9038              3081.8720              3119.6925
 Red. masses --      1.1061                 1.0956                 1.1088
 Frc consts  --      6.1580                 6.1309                 6.3582
 IR Inten    --     38.9757                40.1605                29.0704

                     43                     44                     45
                      A                      A                      A
 Frequencies --   3687.7196              3772.6201              3786.8212
 Red. masses --      1.0657                 1.0662                 1.0665
 Frc consts  --      8.5392                 8.9405                 9.0111
 IR Inten    --    143.7680                42.2503                46.5223

 Optimization completed.
    -- Stationary point found.

 1\1\GINC-C242\Freq\RwB97XD\def2SVPP\C4H10O3\PETERCHAO1\04-Aug-2022\0\\
 #T Geom=AllCheck Guess=TCheck SCRF=Check GenChk RwB97XD/def2SVPP Freq\
 \Comment gs min\\0,1\O,2.9032947628,-0.5826938957,1.0450125903\C,2.274
 2243753,0.1084008244,-0.0276431744\C,2.8325309689,1.5248431802,-0.0898
 619729\C,2.4102567414,2.3593145922,1.1271079588\O,2.9475589083,1.89037
 50829,2.3344142793\C,4.3642971883,1.5186247381,-0.2421570228\O,4.83331
 76024,0.5503828724,-1.1479289037\H,2.5079367177,-1.4585578967,1.143057
 9266\H,1.17688445,0.1470958779,0.1225213215\H,2.4715175713,-0.40782633

 Normal termination of Gaussian 16 at Thu Aug  4 16:21:34 2022.
