 Gaussian 16, Revision B.01,
 Gaussian 16:  ES64L-G16RevB.01 20-Dec-2017

 ----------------------------------------------------------------------
 #T wB97XD/def2svpp opt=tight freq int(grid=ultrafine) scf=(verytight,q
 c)
 ----------------------------------------------------------------------
 --------------
 Comment gs min
 --------------
 Symbolic Z-matrix:
 Charge =  0 Multiplicity = 1

 SCF Done:  E(RwB97XD) =  -437.682740227     a.u. after    8 cycles
 SCF Done:  E(RwB97XD) =  -437.687309958     a.u. after    9 cycles
 SCF Done:  E(RwB97XD) =  -437.667043939     a.u. after   27 cycles
 SCF Done:  E(RwB97XD) =  -437.687875847     a.u. after    9 cycles
 SCF Done:  E(RwB97XD) =  -437.687909938     a.u. after    4 cycles
 SCF Done:  E(RwB97XD) =  -437.687923395     a.u. after    3 cycles
 SCF Done:  E(RwB97XD) =  -437.687924433     a.u. after    3 cycles
 SCF Done:  E(RwB97XD) =  -437.687925301     a.u. after    3 cycles
 SCF Done:  E(RwB97XD) =  -437.687925522     a.u. after    2 cycles
 SCF Done:  E(RwB97XD) =  -437.687925581     a.u. after    2 cycles
 SCF Done:  E(RwB97XD) =  -437.687925592     a.u. after    2 cycles
 SCF Done:  E(RwB97XD) =  -437.687925602     a.u. after    2 cycles
 SCF Done:  E(RwB97XD) =  -437.687925606     a.u. after    2 cycles
 Optimization completed.
    -- Stationary point found.
 Normal termination of Gaussian 16 at Thu Aug  4 16:20:23 2022.

 ---------------------------------------------------------------------
 #T Geom=AllCheck Guess=TCheck SCRF=Check GenChk RwB97XD/def2SVPP Freq
 ---------------------------------------------------------------------
 Structure from the checkpoint file:  "/scratch/user/peterchao1/peterchao1/6097806_1659647584000000877831822/Gau-7178.chk"
 --------------
 Comment gs min
 --------------
 Charge =  0 Multiplicity = 1

                         Standard orientation:
 ---------------------------------------------------------------------
 Center     Atomic      Atomic             Coordinates (Angstroms)
 Number     Number       Type             X           Y           Z
 ---------------------------------------------------------------------
      1          6           0       -0.295665    1.719184   -0.047215
      2          6           0       -0.146770    0.225999    0.189750
      3          6           0       -0.387025   -0.149296    1.651633
      4          6           0       -1.070156   -0.584267   -0.754138
      5          8           0       -2.420916   -0.292379   -0.535250
      6          7           0        1.274864   -0.214730   -0.151814
      7          8           0        2.065717    0.616820   -0.528785
      8          8           0        1.518828   -1.395930   -0.023061
      9          1           0       -1.348756    1.990087    0.129312
     10          1           0       -0.035837    1.988048   -1.082534
     11          1           0        0.346892    2.300800    0.632112
     12          1           0       -1.404657    0.159883    1.941732
     13          1           0        0.322717    0.375493    2.312944
     14          1           0       -0.275601   -1.234360    1.807105
     15          1           0       -0.848743   -1.660266   -0.636330
     16          1           0       -0.846200   -0.303101   -1.796907
     17          1           0       -2.745200   -0.811279    0.211858
 ---------------------------------------------------------------------

 SCF Done:  E(RwB97XD) =  -437.687925606     a.u. after    1 cycles

 The electronic state is 1-A.
 Alpha  occ. eigenvalues --  -19.29072 -19.28776 -19.27638 -14.67864 -10.36995
 Alpha  occ. eigenvalues --  -10.36236 -10.31375 -10.29876  -1.33683  -1.15853
 Alpha  occ. eigenvalues --   -1.14155  -0.95475  -0.81049  -0.79796  -0.78177
 Alpha  occ. eigenvalues --   -0.66213  -0.64640  -0.62617  -0.61494  -0.60074
 Alpha  occ. eigenvalues --   -0.55579  -0.55238  -0.51110  -0.50381  -0.48798
 Alpha  occ. eigenvalues --   -0.47043  -0.45626  -0.43059  -0.39796  -0.39691
 Alpha  occ. eigenvalues --   -0.38218  -0.37292
 Alpha virt. eigenvalues --    0.01116   0.10933   0.14973   0.16204   0.18017
 Alpha virt. eigenvalues --    0.18774   0.19303   0.20744   0.22832   0.23656
 Alpha virt. eigenvalues --    0.25413   0.26552   0.29381   0.30309   0.31516

 Mulliken charges:
               1
     1  C   -0.241114
     2  C   -0.208283
     3  C   -0.299102
     4  C    0.051936
     5  O   -0.471255
     6  N    0.243187
     7  O   -0.235723
     8  O   -0.255373
     9  H    0.140215
    10  H    0.135213
    11  H    0.134390
    12  H    0.131040
    13  H    0.143970
    14  H    0.150021
    15  H    0.132187
    16  H    0.121483
    17  H    0.327208
 Sum of Mulliken charges =  -0.00000

 Dipole moment (field-independent basis, Debye):
    X=             -2.8466    Y=              0.0448    Z=              1.8408  Tot=              3.3903
  Exact polarizability:  58.803   2.226  61.585  -2.957  -2.932  52.084
 Approx polarizability:  64.170   4.661  76.730  -4.248  -6.367  55.844
   1 Symmetry operations used in ECPInt.
 ECPInt:  NShTT=    2211 NPrTT=    8909 LenC2=    2195 LenP2D=    7070.
 LDataN:  DoStor=T MaxTD1= 6 Len=  172
 Calling FoFJK, ICntrl=    100127 FMM=F ISym2X=0 I1Cent= 0 IOpClX= 0 NMat=1 NMatS=1 NMatT=0.
 Full mass-weighted force constant matrix:
 Low frequencies ---   -7.3155   -5.2350   -2.8535    0.0007    0.0010    0.0013
 Low frequencies ---   43.2609  105.8578  209.4981
 Diagonal vibrational polarizability:

                      1                      2                      3
                      A                      A                      A
 Frequencies --     43.2552               105.8517               209.4978
 Red. masses --      8.5255                 2.6313                 2.5512
 Frc consts  --      0.0094                 0.0174                 0.0660
 IR Inten    --      0.0286                 6.7454                 0.9391

                      4                      5                      6
                      A                      A                      A
 Frequencies --    233.5550               269.0151               290.6208
 Red. masses --      1.3825                 1.1281                 2.6949
 Frc consts  --      0.0444                 0.0481                 0.1341
 IR Inten    --     27.0799                 8.4003                 4.3254

                      7                      8                      9
                      A                      A                      A
 Frequencies --    324.1123               341.1364               376.3831
 Red. masses --      1.9884                 1.4844                 2.2547
 Frc consts  --      0.1231                 0.1018                 0.1882
 IR Inten    --     35.8468                67.0934                10.0166

                     10                     11                     12
                      A                      A                      A
 Frequencies --    386.4457               438.1999               547.1794
 Red. masses --      2.7738                 3.8204                 4.6616
 Frc consts  --      0.2441                 0.4322                 0.8223
 IR Inten    --      9.0407                 9.4355                 2.8642

                     13                     14                     15
                      A                      A                      A
 Frequencies --    688.9263               762.8700               824.7545
 Red. masses --      3.0323                 8.4773                 3.2392
 Frc consts  --      0.8479                 2.9068                 1.2982
 IR Inten    --      6.0688                 1.4627                 6.0381

                     16                     17                     18
                      A                      A                      A
 Frequencies --    917.8682               942.0087               973.8052
 Red. masses --      5.8582                 1.4801                 1.2625
 Frc consts  --      2.9079                 0.7738                 0.7054
 IR Inten    --     45.2695                 5.6036                 3.5306

                     19                     20                     21
                      A                      A                      A
 Frequencies --   1018.1817              1044.6259              1153.6474
 Red. masses --      1.8513                 1.3539                 4.1724
 Frc consts  --      1.1308                 0.8705                 3.2718
 IR Inten    --      7.0125                11.5442               135.1003

                     22                     23                     24
                      A                      A                      A
 Frequencies --   1183.7295              1198.2096              1285.9023
 Red. masses --      1.3827                 2.1844                 2.9436
 Frc consts  --      1.1416                 1.8478                 2.8678
 IR Inten    --      3.6052                 4.3295                 9.8385

                     25                     26                     27
                      A                      A                      A
 Frequencies --   1330.9668              1399.6732              1407.6058
 Red. masses --      1.9621                 1.2769                 1.3192
 Frc consts  --      2.0479                 1.4739                 1.5400
 IR Inten    --      4.3420                 3.4534                17.4431

                     28                     29                     30
                      A                      A                      A
 Frequencies --   1423.9928              1432.5714              1476.6424
 Red. masses --      1.2764                 1.3643                 1.0511
 Frc consts  --      1.5250                 1.6497                 1.3503
 IR Inten    --     44.5658                15.4862                 2.3976

                     31                     32                     33
                      A                      A                      A
 Frequencies --   1482.9957              1497.1653              1503.4833
 Red. masses --      1.0601                 1.0834                 1.1642
 Frc consts  --      1.3737                 1.4309                 1.5505
 IR Inten    --      3.0276                 2.6407                14.7972

                     34                     35                     36
                      A                      A                      A
 Frequencies --   1512.6160              1519.8959              1760.5191
 Red. masses --      3.3011                 1.1919                13.9307
 Frc consts  --      4.4500                 1.6223                25.4392
 IR Inten    --     74.7156                30.1912               276.3321

                     37                     38                     39
                      A                      A                      A
 Frequencies --   3049.0601              3054.6301              3061.9697
 Red. masses --      1.0369                 1.0602                 1.0374
 Frc consts  --      5.6796                 5.8286                 5.7308
 IR Inten    --     10.3158                20.2017                 4.3827

                     40                     41                     42
                      A                      A                      A
 Frequencies --   3123.8997              3145.0920              3158.3582
 Red. masses --      1.1107                 1.1050                 1.1066
 Frc consts  --      6.3862                 6.4397                 6.5035
 IR Inten    --     14.1459                 5.7946                 4.0263

                     43                     44                     45
                      A                      A                      A
 Frequencies --   3164.2036              3165.2865              3789.0910
 Red. masses --      1.1063                 1.1054                 1.0665
 Frc consts  --      6.5260                 6.5251                 9.0219
 IR Inten    --      6.2990                 5.3785                45.6493

                           ! Non-Optimized Parameters !
 Normal termination of Gaussian 16 at Thu Aug  4 16:21:51 2022.
