 Gaussian 16, Revision B.01,
 Gaussian 16:  ES64L-G16RevB.01 20-Dec-2017

 --------------------------------------------------------------
 #T wB97XD//def2svpp Volume=tight Geom=AllCheckpoint Guess=Read
 --------------------------------------------------------------
 Structure from the checkpoint file:  "monomer.chk"
 -------
 Monomer
 -------
 Charge =  0 Multiplicity = 1

                         Standard orientation:
 ---------------------------------------------------------------------
 Center     Atomic      Atomic             Coordinates (Angstroms)
 Number     Number       Type             X           Y           Z
 ---------------------------------------------------------------------
      1          6           0        0.561635    1.463391    0.106627
      2          6           0        0.466322    0.003897   -0.338795
      3          6           0        1.738851   -0.767653    0.012815
      4          6           0       -0.770236   -0.699318    0.253974
      5          7           0       -2.069415   -0.128265   -0.049543
      6          1           0        1.439790    1.962402   -0.339042
      7          1           0        0.657630    1.532370    1.206723
      8          1           0       -0.331762    2.038465   -0.192966
      9          1           0        0.351723   -0.009163   -1.441291
     10          1           0        1.682299   -1.815672   -0.331195
     11          1           0        1.899721   -0.781750    1.106884
     12          1           0        2.629398   -0.308014   -0.450341
     13          1           0       -0.665643   -0.737626    1.355215
     14          1           0       -0.772928   -1.751451   -0.086650
     15          1           0       -2.201361   -0.027767   -1.055993
     16          1           0       -2.182392    0.794159    0.367733
 ---------------------------------------------------------------------

 SCF Done:  E(RwB97XD) =  -213.556103199     A.U. after    1 cycles

 The electronic state is 1-A.
 Alpha  occ. eigenvalues --  -14.41047 -10.30755 -10.29358 -10.28258 -10.28095
 Alpha  occ. eigenvalues --   -0.97036  -0.87985  -0.77357  -0.74248  -0.65101
 Alpha  occ. eigenvalues --   -0.58390  -0.54538  -0.53022  -0.51382  -0.47304
 Alpha  occ. eigenvalues --   -0.46226  -0.44488  -0.43227  -0.41397  -0.40290
 Alpha  occ. eigenvalues --   -0.30846
 Alpha virt. eigenvalues --    0.12957   0.15540   0.16498   0.18491   0.20410
 Alpha virt. eigenvalues --    0.21148   0.21687   0.22913   0.24473   0.25730
 Alpha virt. eigenvalues --    0.26709   0.29919   0.32062   0.33794   0.34345

 Mulliken charges:
               1
     1  C   -0.311016
     2  C   -0.206599
     3  C   -0.302567
     4  C   -0.075279
     5  N   -0.506102
     6  H    0.121017
     7  H    0.109229
     8  H    0.102542
     9  H    0.083513
    10  H    0.117741
    11  H    0.110515
    12  H    0.118602
    13  H    0.095777
    14  H    0.103551
    15  H    0.216412
    16  H    0.222665
 Sum of Mulliken charges =  -0.00000

 Dipole moment (field-independent basis, Debye):
    X=              0.8035    Y=              0.9026    Z=             -0.6170  Tot=              1.3569
 Evaluate density.
 Using the total density.
 Monte-Carlo method of calculating molar volume:
 based on  0.001 e/bohr**3 density envelope.
 Number of points per bohr**3 =  100 CutOff= 1.00D-04
 Using the SCF density.
 There are      1672 points.  Will hold      1672 in memory.
 LenV=  1048398097 MDV=  1048576000.
 Box volume = 4680.943 fraction occupied=0.193
 Integrated density= 4.0579545350330008D+01 error=-1.4204546496699919D+00

 Normal termination of Gaussian 16 at Tue Apr  2 13:45:43 2024.
