 Gaussian 16, Revision B.01,
 Gaussian 16:  ES64L-G16RevB.01 20-Dec-2017

 ----------------------------------------------------------------------
 #T wB97XD/def2svpp opt=tight freq int(grid=ultrafine) scf=(verytight,q
 c) Volume=tight
 ----------------------------------------------------------------------
 -----
 Dimer
 -----
 Symbolic Z-matrix:
 Charge =  0 Multiplicity = 1

 SCF Done:  E(RwB97XD) =  -623.900660133     a.u. after    7 cycles
 SCF Done:  E(RwB97XD) =  -623.849459658     a.u. after   13 cycles
 SCF Done:  E(RwB97XD) =  -623.904574836     a.u. after    9 cycles
 SCF Done:  E(RwB97XD) =  -623.905820863     a.u. after   11 cycles
 SCF Done:  E(RwB97XD) =  -623.905882325     a.u. after    9 cycles
 SCF Done:  E(RwB97XD) =  -623.906212712     a.u. after    8 cycles
 SCF Done:  E(RwB97XD) =  -623.905941115     a.u. after    9 cycles
 SCF Done:  E(RwB97XD) =  -623.906238134     a.u. after    9 cycles
 SCF Done:  E(RwB97XD) =  -623.906407530     a.u. after    7 cycles
 SCF Done:  E(RwB97XD) =  -623.906461348     a.u. after    6 cycles
 SCF Done:  E(RwB97XD) =  -623.906622165     a.u. after    2 cycles
 SCF Done:  E(RwB97XD) =  -623.906622183     a.u. after    2 cycles
 SCF Done:  E(RwB97XD) =  -623.906622188     a.u. after    2 cycles
 SCF Done:  E(RwB97XD) =  -623.906622190     a.u. after    2 cycles
 SCF Done:  E(RwB97XD) =  -623.906622190     a.u. after    2 cycles
 SCF Done:  E(RwB97XD) =  -623.906622190     a.u. after    2 cycles
 SCF Done:  E(RwB97XD) =  -623.906622191     a.u. after    2 cycles
 SCF Done:  E(RwB97XD) =  -623.906622190     a.u. after    2 cycles
 SCF Done:  E(RwB97XD) =  -623.906622191     a.u. after    2 cycles
 Optimization completed.
    -- Stationary point found.
 Normal termination of Gaussian 16 at Mon Apr  1 17:15:00 2024.

 ---------------------------------------------------------------------
 #T Geom=AllCheck Guess=TCheck SCRF=Check GenChk RwB97XD/def2SVPP Freq
 ---------------------------------------------------------------------
 Structure from the checkpoint file:  "dimer.chk"
 -----
 Dimer
 -----
 Charge =  0 Multiplicity = 1

                         Standard orientation:
 ---------------------------------------------------------------------
 Center     Atomic      Atomic             Coordinates (Angstroms)
 Number     Number       Type             X           Y           Z
 ---------------------------------------------------------------------
      1          6           0       -2.780257    2.267020   -0.158410
      2          6           0       -2.471445    0.917245   -0.803202
      3          6           0       -2.574326   -0.322470    0.110739
      4          6           0       -1.712558   -0.152232    1.369380
      5          6           0       -4.029126   -0.588729    0.517091
      6          6           0       -2.078763   -1.553933   -0.679016
      7          8           0       -0.750283   -1.481784   -1.111107
      8          1           0       -2.715223    3.073510   -0.909256
      9          1           0       -2.063907    2.510609    0.644946
     10          1           0       -3.795819    2.302156    0.273479
     11          1           0       -1.450686    0.944798   -1.222990
     12          1           0       -3.149038    0.765052   -1.664979
     13          1           0       -2.119341    0.626337    2.037560
     14          1           0       -0.680256    0.135762    1.109702
     15          1           0       -1.663254   -1.094496    1.944697
     16          1           0       -4.448726    0.250222    1.098545
     17          1           0       -4.104849   -1.494349    1.146202
     18          1           0       -4.670704   -0.738571   -0.370417
     19          1           0       -2.697114   -1.669219   -1.587411
     20          1           0       -2.244356   -2.460325   -0.056189
     21          1           0       -0.146520   -1.516000   -0.344226
     22          6           0        1.168601    2.152693    0.081908
     23          6           0        1.670336    0.954192   -0.721947
     24          6           0        2.763943    0.085635   -0.058952
     25          6           0        3.305302   -0.894437   -1.110795
     26          6           0        3.914991    0.951336    0.470164
     27          6           0        2.201135   -0.716291    1.130932
     28          8           0        1.283015   -1.734026    0.777306
     29          1           0        0.802363    1.867197    1.083524
     30          1           0        0.324919    2.632569   -0.442568
     31          1           0        1.952212    2.917757    0.218106
     32          1           0        2.070045    1.324058   -1.684753
     33          1           0        0.818349    0.303026   -0.983064
     34          1           0        3.848009   -0.351851   -1.904142
     35          1           0        2.486794   -1.450560   -1.601885
     36          1           0        4.012529   -1.619796   -0.664354
     37          1           0        4.764317    0.325922    0.799536
     38          1           0        3.602144    1.569536    1.330116
     39          1           0        4.283822    1.633122   -0.316672
     40          1           0        1.658051   -0.053382    1.823399
     41          1           0        3.041516   -1.160652    1.701088
     42          1           0        1.755853   -2.446119    0.325064
 ---------------------------------------------------------------------

 SCF Done:  E(RwB97XD) =  -623.906622191     a.u. after    1 cycles

 The electronic state is 1-A.
 Alpha  occ. eigenvalues --  -19.27656 -19.22273 -10.34543 -10.31694 -10.31082
 Alpha  occ. eigenvalues --  -10.29264 -10.28864 -10.28754 -10.28269 -10.28002
 Alpha  occ. eigenvalues --  -10.27413 -10.27381 -10.27313 -10.27250  -1.13498
 Alpha  occ. eigenvalues --   -1.08754  -0.92157  -0.90472  -0.82899  -0.81747
 Alpha  occ. eigenvalues --   -0.78695  -0.77348  -0.76813  -0.74860  -0.71325
 Alpha  occ. eigenvalues --   -0.70128  -0.64411  -0.61719  -0.60189  -0.58261
 Alpha  occ. eigenvalues --   -0.56134  -0.55971  -0.54062  -0.53462  -0.52694
 Alpha  occ. eigenvalues --   -0.51668  -0.50811  -0.50498  -0.49692  -0.47377
 Alpha  occ. eigenvalues --   -0.46854  -0.46459  -0.46174  -0.45995  -0.45480
 Alpha  occ. eigenvalues --   -0.44832  -0.44587  -0.43175  -0.42476  -0.41963
 Alpha  occ. eigenvalues --   -0.41473  -0.40695  -0.39889  -0.38934  -0.38768
 Alpha  occ. eigenvalues --   -0.37397  -0.36297  -0.32781
 Alpha virt. eigenvalues --    0.11331   0.13315   0.14167   0.15922   0.16681
 Alpha virt. eigenvalues --    0.17174   0.17993   0.18299   0.18667   0.19288
 Alpha virt. eigenvalues --    0.19581   0.20405   0.20950   0.21991   0.22207

 Mulliken charges:
               1
     1  C   -0.319846
     2  C   -0.194365
     3  C   -0.262832
     4  C   -0.328230
     5  C   -0.280023
     6  C    0.077743
     7  O   -0.518248
     8  H    0.117479
     9  H    0.119132
    10  H    0.114096
    11  H    0.131854
    12  H    0.091363
    13  H    0.119930
    14  H    0.126704
    15  H    0.114601
    16  H    0.118520
    17  H    0.110290
    18  H    0.111775
    19  H    0.086145
    20  H    0.078737
    21  H    0.348365
    22  C   -0.341620
    23  C   -0.223943
    24  C   -0.255542
    25  C   -0.316296
    26  C   -0.287208
    27  C    0.051570
    28  O   -0.495102
    29  H    0.123198
    30  H    0.136806
    31  H    0.118068
    32  H    0.099464
    33  H    0.141507
    34  H    0.125068
    35  H    0.133130
    36  H    0.110246
    37  H    0.114625
    38  H    0.124318
    39  H    0.121815
    40  H    0.119202
    41  H    0.097509
    42  H    0.339995
 Sum of Mulliken charges =  -0.00000

 Dipole moment (field-independent basis, Debye):
    X=              2.0766    Y=             -0.1562    Z=              1.1798  Tot=              2.3934
  Exact polarizability: 153.882   0.195 135.283   0.688  -0.114 122.858
 Approx polarizability: 145.467   0.543 141.556   0.954   0.272 140.163
   1 Symmetry operations used in ECPInt.
 ECPInt:  NShTT=    9870 NPrTT=   39606 LenC2=    9576 LenP2D=   27653.
 LDataN:  DoStor=T MaxTD1= 6 Len=  172
 Calling FoFJK, ICntrl=    100127 FMM=F ISym2X=0 I1Cent= 0 IOpClX= 0 NMat=1 NMatS=1 NMatT=0.
 Full mass-weighted force constant matrix:
 Low frequencies ---   -5.9140   -2.4513   -0.0006    0.0005    0.0008    5.0724
 Low frequencies ---   29.8862   41.9253   47.2099
 Diagonal vibrational polarizability:

                      1                      2                      3
                      A                      A                      A
 Frequencies --     29.8207                41.9057                47.2035
 Red. masses --      3.0599                 3.2246                 3.3359
 Frc consts  --      0.0016                 0.0033                 0.0044
 IR Inten    --      0.4413                 0.6624                 0.8684

                      4                      5                      6
                      A                      A                      A
 Frequencies --     68.0226               101.4784               106.7151
 Red. masses --      3.5719                 3.4890                 2.1579
 Frc consts  --      0.0097                 0.0212                 0.0145
 IR Inten    --      0.4952                 0.8053                 2.3913

                      7                      8                      9
                      A                      A                      A
 Frequencies --    124.8774               142.2773               185.2523
 Red. masses --      2.8950                 2.7017                 1.6134
 Frc consts  --      0.0266                 0.0322                 0.0326
 IR Inten    --      1.2287                 3.4364                 1.6365

                     10                     11                     12
                      A                      A                      A
 Frequencies --    200.6315               215.5876               229.1132
 Red. masses --      2.6772                 1.5476                 1.7291
 Frc consts  --      0.0635                 0.0424                 0.0535
 IR Inten    --      2.0973                 1.4447                 1.3174

                     13                     14                     15
                      A                      A                      A
 Frequencies --    243.6316               262.4793               276.6905
 Red. masses --      1.3539                 1.3940                 1.6379
 Frc consts  --      0.0473                 0.0566                 0.0739
 IR Inten    --      1.4205                 0.3383                 1.5779

                     16                     17                     18
                      A                      A                      A
 Frequencies --    276.9555               293.7256               298.2296
 Red. masses --      1.5535                 1.4421                 2.0385
 Frc consts  --      0.0702                 0.0733                 0.1068
 IR Inten    --      2.0731                 2.5532                 1.3171

                     19                     20                     21
                      A                      A                      A
 Frequencies --    324.6335               328.1975               347.0315
 Red. masses --      1.3866                 1.2570                 2.0027
 Frc consts  --      0.0861                 0.0798                 0.1421
 IR Inten    --      4.4060                 2.9680                 0.1342

                     22                     23                     24
                      A                      A                      A
 Frequencies --    366.2014               370.6175               377.1597
 Red. masses --      2.2489                 2.1924                 2.2632
 Frc consts  --      0.1777                 0.1774                 0.1897
 IR Inten    --      2.2843                 3.4665                 4.6361

                     25                     26                     27
                      A                      A                      A
 Frequencies --    412.3721               414.2822               425.7682
 Red. masses --      2.3581                 1.1723                 2.0056
 Frc consts  --      0.2363                 0.1185                 0.2142
 IR Inten    --      1.3052               129.8878                 3.1381

                     28                     29                     30
                      A                      A                      A
 Frequencies --    460.7867               491.6190               551.7844
 Red. masses --      2.5667                 2.2408                 2.8960
 Frc consts  --      0.3211                 0.3191                 0.5195
 IR Inten    --      0.9271                12.4663                 9.8122

                     31                     32                     33
                      A                      A                      A
 Frequencies --    580.9350               732.7553               739.6319
 Red. masses --      3.0411                 2.9151                 2.9694
 Frc consts  --      0.6047                 0.9222                 0.9571
 IR Inten    --      2.3953                 2.0737                 5.3314

                     34                     35                     36
                      A                      A                      A
 Frequencies --    763.2378               793.9787               801.6448
 Red. masses --      1.0797                 1.1846                 1.1826
 Frc consts  --      0.3706                 0.4400                 0.4478
 IR Inten    --     78.5003                 5.7546                 7.0162

                     37                     38                     39
                      A                      A                      A
 Frequencies --    892.8886               899.7494               928.9241
 Red. masses --      1.8474                 1.8645                 1.7818
 Frc consts  --      0.8678                 0.8893                 0.9059
 IR Inten    --      6.7408                 7.5823                 5.3961

                     40                     41                     42
                      A                      A                      A
 Frequencies --    932.7159               960.2357               965.5427
 Red. masses --      1.7859                 1.4055                 1.3881
 Frc consts  --      0.9154                 0.7635                 0.7624
 IR Inten    --      3.6458                 0.6922                 1.9859

                     43                     44                     45
                      A                      A                      A
 Frequencies --    991.3429               994.5866              1012.7000
 Red. masses --      1.4833                 1.3811                 1.2729
 Frc consts  --      0.8588                 0.8049                 0.7692
 IR Inten    --     15.1885                 9.2732                 1.0731

                     46                     47                     48
                      A                      A                      A
 Frequencies --   1022.6159              1042.2194              1051.6764
 Red. masses --      1.2962                 1.5324                 1.7677
 Frc consts  --      0.7986                 0.9807                 1.1519
 IR Inten    --      0.3813                 6.8437                 3.5758

                     49                     50                     51
                      A                      A                      A
 Frequencies --   1080.4872              1090.5359              1099.8675
 Red. masses --      1.5458                 2.1127                 1.5673
 Frc consts  --      1.0633                 1.4804                 1.1171
 IR Inten    --      1.0722                 1.1440                10.1732

                     52                     53                     54
                      A                      A                      A
 Frequencies --   1104.9922              1123.4928              1162.8032
 Red. masses --      1.9188                 4.8038                 4.9262
 Frc consts  --      1.3804                 3.5725                 3.9244
 IR Inten    --      7.8702               147.3691               104.8405

                     55                     56                     57
                      A                      A                      A
 Frequencies --   1187.0773              1223.9649              1245.1050
 Red. masses --      1.3845                 1.4626                 2.1741
 Frc consts  --      1.1495                 1.2910                 1.9858
 IR Inten    --     18.0461                19.3557                 2.9794

                     58                     59                     60
                      A                      A                      A
 Frequencies --   1248.4440              1262.4035              1275.3727
 Red. masses --      1.8670                 2.4258                 1.9826
 Frc consts  --      1.7144                 2.2777                 1.9001
 IR Inten    --      3.6901                 2.5522                10.3434

                     61                     62                     63
                      A                      A                      A
 Frequencies --   1308.2926              1312.6417              1347.5768
 Red. masses --      2.1133                 1.4296                 1.4732
 Frc consts  --      2.1312                 1.4513                 1.5763
 IR Inten    --      5.3901                 1.7707                17.5511

                     64                     65                     66
                      A                      A                      A
 Frequencies --   1353.3629              1383.5292              1396.5176
 Red. masses --      1.2693                 1.4996                 1.2541
 Frc consts  --      1.3698                 1.6912                 1.4410
 IR Inten    --      0.5662                 1.0841                 3.6462

                     67                     68                     69
                      A                      A                      A
 Frequencies --   1405.0540              1407.2305              1414.5142
 Red. masses --      1.2941                 1.3040                 1.2958
 Frc consts  --      1.5052                 1.5215                 1.5276
 IR Inten    --      5.1751                 8.5029                17.1720

                     70                     71                     72
                      A                      A                      A
 Frequencies --   1418.0253              1420.8418              1427.1058
 Red. masses --      1.3602                 1.3045                 1.3161
 Frc consts  --      1.6115                 1.5517                 1.5792
 IR Inten    --      7.9011                 6.0706                 4.6588

                     73                     74                     75
                      A                      A                      A
 Frequencies --   1434.1562              1437.3325              1439.6444
 Red. masses --      1.3245                 1.2905                 1.3025
 Frc consts  --      1.6050                 1.5708                 1.5905
 IR Inten    --     28.2073                 2.7836                50.3460

                     76                     77                     78
                      A                      A                      A
 Frequencies --   1459.0888              1479.2148              1480.5581
 Red. masses --      1.1721                 1.0710                 1.0609
 Frc consts  --      1.4701                 1.3807                 1.3701
 IR Inten    --     42.8212                 7.3086                 3.8848

                     79                     80                     81
                      A                      A                      A
 Frequencies --   1484.0749              1486.5346              1489.0567
 Red. masses --      1.0607                 1.0559                 1.0585
 Frc consts  --      1.3765                 1.3748                 1.3828
 IR Inten    --      5.3928                 8.7407                13.3995

                     82                     83                     84
                      A                      A                      A
 Frequencies --   1493.6577              1496.6803              1499.2495
 Red. masses --      1.0551                 1.0631                 1.0705
 Frc consts  --      1.3869                 1.4031                 1.4178
 IR Inten    --      6.0237                 2.5419                 5.3520

                     85                     86                     87
                      A                      A                      A
 Frequencies --   1501.1977              1501.8558              1505.1878
 Red. masses --      1.0816                 1.0681                 1.0610
 Frc consts  --      1.4361                 1.4194                 1.4162
 IR Inten    --      3.1475                 7.3460                 1.2280

                     88                     89                     90
                      A                      A                      A
 Frequencies --   1506.9545              1508.5151              1511.5538
 Red. masses --      1.0639                 1.0563                 1.0725
 Frc consts  --      1.4235                 1.4162                 1.4437
 IR Inten    --     11.4999                 7.5197                11.6073

                     91                     92                     93
                      A                      A                      A
 Frequencies --   1520.7998              1521.3177              2973.5062
 Red. masses --      1.0699                 1.0681                 1.0698
 Frc consts  --      1.4579                 1.4565                 5.5732
 IR Inten    --      5.2418                20.4497                84.3541

                     94                     95                     96
                      A                      A                      A
 Frequencies --   3014.7280              3016.8207              3022.3210
 Red. masses --      1.0436                 1.0645                 1.0384
 Frc consts  --      5.5883                 5.7079                 5.5884
 IR Inten    --     22.9869                48.4634                30.8124

                     97                     98                     99
                      A                      A                      A
 Frequencies --   3026.1563              3031.7458              3033.3026
 Red. masses --      1.0393                 1.0627                 1.0388
 Frc consts  --      5.6078                 5.7550                 5.6314
 IR Inten    --     33.7656                35.0647                23.6362

                    100                    101                    102
                      A                      A                      A
 Frequencies --   3037.2058              3038.2909              3041.3463
 Red. masses --      1.0414                 1.0418                 1.0691
 Frc consts  --      5.6599                 5.6664                 5.8263
 IR Inten    --      2.6162                24.1193                18.0070

                    103                    104                    105
                      A                      A                      A
 Frequencies --   3078.1590              3098.0439              3103.7015
 Red. masses --      1.0977                 1.0990                 1.1028
 Frc consts  --      6.1280                 6.2147                 6.2591
 IR Inten    --     42.2169                 4.0894                15.8428

                    106                    107                    108
                      A                      A                      A
 Frequencies --   3108.7121              3109.8252              3114.1613
 Red. masses --      1.1042                 1.0992                 1.1035
 Frc consts  --      6.2872                 6.2632                 6.3052
 IR Inten    --     23.3169                 7.3705                15.1630

                    109                    110                    111
                      A                      A                      A
 Frequencies --   3117.0922              3119.3003              3120.4220
 Red. masses --      1.1039                 1.1035                 1.1033
 Frc consts  --      6.3193                 6.3260                 6.3293
 IR Inten    --     22.5087                35.0791                 8.9830

                    112                    113                    114
                      A                      A                      A
 Frequencies --   3121.8950              3122.4894              3124.2280
 Red. masses --      1.1021                 1.1025                 1.1027
 Frc consts  --      6.3287                 6.3331                 6.3416
 IR Inten    --     30.5760                20.7661                25.9895

                    115                    116                    117
                      A                      A                      A
 Frequencies --   3128.5155              3130.1548              3132.4962
 Red. masses --      1.1025                 1.1038                 1.1029
 Frc consts  --      6.3579                 6.3717                 6.3761
 IR Inten    --     49.2722                45.9945                 2.7570

                    118                    119                    120
                      A                      A                      A
 Frequencies --   3147.2136              3594.0672              3774.6290
 Red. masses --      1.1004                 1.0679                 1.0660
 Frc consts  --      6.4219                 8.1275                 8.9482
 IR Inten    --     15.0132               493.7589                44.7868

                           ! Non-Optimized Parameters !
 Normal termination of Gaussian 16 at Mon Apr  1 17:29:00 2024.
