 Gaussian 16, Revision B.01,
 Gaussian 16:  ES64L-G16RevB.01 20-Dec-2017

 ----------------------------------------------------------------------
 #T wB97XD/def2svpp opt=tight freq int(grid=ultrafine) scf=(verytight,q
 c)
 ----------------------------------------------------------------------
 -------
 comment
 -------
 Symbolic Z-matrix:
 Charge =  1 Multiplicity = 2

 SCF Done:  E(UwB97XD) =  -272.307038184     a.u. after   12 cycles
 SCF Done:  E(UwB97XD) =  -272.321240976     a.u. after   12 cycles
 SCF Done:  E(UwB97XD) =  -272.330780051     a.u. after   15 cycles
 SCF Done:  E(UwB97XD) =  -272.334633925     a.u. after    9 cycles
 SCF Done:  E(UwB97XD) =  -272.336831507     a.u. after   11 cycles
 SCF Done:  E(UwB97XD) =  -272.337084498     a.u. after    5 cycles
 SCF Done:  E(UwB97XD) =  -272.337127083     a.u. after    3 cycles
 SCF Done:  E(UwB97XD) =  -272.337134476     a.u. after    3 cycles
 SCF Done:  E(UwB97XD) =  -272.337137958     a.u. after    3 cycles
 SCF Done:  E(UwB97XD) =  -272.337138810     a.u. after    2 cycles
 SCF Done:  E(UwB97XD) =  -272.337138966     a.u. after    2 cycles
 SCF Done:  E(UwB97XD) =  -272.337138999     a.u. after    2 cycles
 SCF Done:  E(UwB97XD) =  -272.337139001     a.u. after    2 cycles
 Optimization completed.
    -- Stationary point found.
 Normal termination of Gaussian 16 at Mon Jul 10 19:27:11 2023.

 ---------------------------------------------------------------------
 #T Geom=AllCheck Guess=TCheck SCRF=Check GenChk UwB97XD/def2SVPP Freq
 ---------------------------------------------------------------------
 Structure from the checkpoint file:  "11.chk"
 -------
 comment
 -------
 Charge =  1 Multiplicity = 2

                         Standard orientation:
 ---------------------------------------------------------------------
 Center     Atomic      Atomic             Coordinates (Angstroms)
 Number     Number       Type             X           Y           Z
 ---------------------------------------------------------------------
      1          6           0       -0.465150    1.280005   -0.882490
      2          6           0       -0.609229    0.090366    0.023708
      3          6           0       -0.597914    0.375901    1.496821
      4          6           0       -1.539501   -0.991058   -0.443178
      5          6           0        1.138331   -0.817748   -0.220874
      6          8           0        2.098982    0.004053    0.112356
      7          1           0       -1.434245    1.818579   -0.860882
      8          1           0       -0.286651    1.001887   -1.934675
      9          1           0        0.300284    1.991308   -0.533403
     10          1           0       -1.528398    0.937423    1.719585
     11          1           0        0.247354    1.013538    1.798980
     12          1           0       -0.617368   -0.539368    2.109660
     13          1           0       -2.569676   -0.602021   -0.308794
     14          1           0       -1.466826   -1.909559    0.161265
     15          1           0       -1.423168   -1.229824   -1.512585
     16          1           0        1.019782   -1.079452   -1.282934
     17          1           0        0.968999   -1.597215    0.531732
     18          1           0        2.438837    0.537478   -0.630710
 ---------------------------------------------------------------------

 SCF Done:  E(UwB97XD) =  -272.337139001     a.u. after    1 cycles

 The electronic state is 2-A.
 Alpha  occ. eigenvalues --  -19.53339 -10.60096 -10.56265 -10.47525 -10.47136
 Alpha  occ. eigenvalues --  -10.46658  -1.40767  -1.12007  -1.00403  -0.97526
 Alpha  occ. eigenvalues --   -0.97250  -0.86987  -0.82051  -0.78916  -0.76900
 Alpha  occ. eigenvalues --   -0.72347  -0.71905  -0.68770  -0.66287  -0.65639
 Alpha  occ. eigenvalues --   -0.64929  -0.63768  -0.62364  -0.62220  -0.53026
 Alpha virt. eigenvalues --   -0.10554  -0.06480  -0.03014   0.00340   0.01294
 Alpha virt. eigenvalues --    0.03863   0.04095   0.04357   0.05724   0.06626
 Alpha virt. eigenvalues --    0.07568   0.09332   0.09987   0.11194   0.12881

  Beta  occ. eigenvalues --  -19.52771 -10.59721 -10.55834 -10.47524 -10.47130
  Beta  occ. eigenvalues --  -10.46657  -1.39425  -1.10635  -0.98954  -0.97193
  Beta  occ. eigenvalues --   -0.96968  -0.85850  -0.80484  -0.78108  -0.74189
  Beta  occ. eigenvalues --   -0.71968  -0.71495  -0.66077  -0.65513  -0.64861
  Beta  occ. eigenvalues --   -0.64189  -0.63678  -0.62082  -0.61950
  Beta virt. eigenvalues --   -0.28412  -0.06504  -0.05343  -0.02646   0.00513
  Beta virt. eigenvalues --    0.01505   0.04089   0.04425   0.04456   0.05948
  Beta virt. eigenvalues --    0.06882   0.07856   0.09506   0.10603   0.11298

 Mulliken charges and spin densities:
               1          2
     1  C   -0.296381  -0.012914
     2  C   -0.369738   0.395214
     3  C   -0.270061  -0.013204
     4  C   -0.275928  -0.012879
     5  C    0.002584   0.286745
     6  O   -0.275726   0.210020
     7  H    0.208856   0.035355
     8  H    0.169968   0.004544
     9  H    0.169410   0.001951
    10  H    0.203193   0.037570
    11  H    0.182850   0.004627
    12  H    0.174316   0.002722
    13  H    0.206801   0.041233
    14  H    0.177281   0.004127
    15  H    0.173559   0.002693
    16  H    0.208299   0.009019
    17  H    0.215556   0.010868
    18  H    0.395158  -0.007691
 Sum of Mulliken charges =   1.00000   1.00000

 Dipole moment (field-independent basis, Debye):
    X=              0.7374    Y=             -0.2421    Z=             -1.6941  Tot=              1.8635
  Exact polarizability:  70.803  -1.109  56.120  -1.318   0.117  54.874
 Approx polarizability:  70.682  -0.026  58.273  -0.217   0.103  56.842
                          Isotropic Fermi Contact Couplings
        Atom                 a.u.       MegaHertz       Gauss      10(-4) cm-1
     1  C(13)             -0.00828      -9.30674      -3.32088      -3.10440
     2  C(13)              0.04725      53.11919      18.95425      17.71866
     3  C(13)             -0.00836      -9.39320      -3.35173      -3.13323
     4  C(13)             -0.00639      -7.18845      -2.56502      -2.39781
     5  C(13)              0.04831      54.31078      19.37944      18.11613
     6  O(17)              0.09156     -55.50331     -19.80496     -18.51391

                      1                      2                      3
                      A                      A                      A
 Frequencies --     94.4903               204.0834               213.1420
 Red. masses --      2.2025                 2.0246                 1.4993
 Frc consts  --      0.0116                 0.0497                 0.0401
 IR Inten    --      5.1004                 0.0963                 0.4694

                      4                      5                      6
                      A                      A                      A
 Frequencies --    242.9432               257.4851               266.9927
 Red. masses --      1.8935                 1.2039                 1.9571
 Frc consts  --      0.0658                 0.0470                 0.0822
 IR Inten    --      0.2062                 1.8229                 2.3152

                      7                      8                      9
                      A                      A                      A
 Frequencies --    278.8521               377.0526               410.5307
 Red. masses --      1.3880                 2.9102                 2.1428
 Frc consts  --      0.0636                 0.2438                 0.2128
 IR Inten    --      0.7446                 0.8349                 3.0063

                     10                     11                     12
                      A                      A                      A
 Frequencies --    436.7562               445.9522               515.1758
 Red. masses --      2.6930                 1.9266                 1.2391
 Frc consts  --      0.3027                 0.2257                 0.1938
 IR Inten    --      0.2437                 1.6584               124.1469

                     13                     14                     15
                      A                      A                      A
 Frequencies --    797.6780               875.8840               891.2252
 Red. masses --      3.4081                 1.1362                 1.2892
 Frc consts  --      1.2777                 0.5136                 0.6033
 IR Inten    --      6.1265                33.7964                 3.9339

                     16                     17                     18
                      A                      A                      A
 Frequencies --    892.9939               983.4357              1025.5162
 Red. masses --      1.2793                 1.2142                 1.5752
 Frc consts  --      0.6011                 0.6919                 0.9760
 IR Inten    --      3.3915                 0.0868                 0.2525

                     19                     20                     21
                      A                      A                      A
 Frequencies --   1027.0432              1131.3373              1141.2715
 Red. masses --      1.5726                 1.0624                 1.5583
 Frc consts  --      0.9773                 0.8012                 1.1959
 IR Inten    --      0.2444               111.0389                60.5578

                     22                     23                     24
                      A                      A                      A
 Frequencies --   1176.9650              1302.3128              1305.4769
 Red. masses --      1.3077                 2.4623                 2.5202
 Frc consts  --      1.0673                 2.4605                 2.5306
 IR Inten    --     34.1950                16.3461                 9.9537

                     25                     26                     27
                      A                      A                      A
 Frequencies --   1351.4831              1385.6157              1389.9043
 Red. masses --      2.1209                 1.2778                 1.2266
 Frc consts  --      2.2824                 1.4455                 1.3961
 IR Inten    --    202.8671                25.3934                43.2504

                     28                     29                     30
                      A                      A                      A
 Frequencies --   1396.6659              1415.5627              1430.2164
 Red. masses --      1.3433                 1.1864                 1.0461
 Frc consts  --      1.5438                 1.4007                 1.2608
 IR Inten    --     18.3971                16.7528                 0.7177

                     31                     32                     33
                      A                      A                      A
 Frequencies --   1463.3625              1467.0375              1480.2957
 Red. masses --      1.0469                 1.0467                 1.1604
 Frc consts  --      1.3209                 1.3273                 1.4981
 IR Inten    --     15.5669                15.3742                 0.1395

                     34                     35                     36
                      A                      A                      A
 Frequencies --   1481.4360              1510.7727              1538.3434
 Red. masses --      1.1735                 1.0789                 1.4983
 Frc consts  --      1.5174                 1.4509                 2.0890
 IR Inten    --      0.0313                20.3466                19.7530

                     37                     38                     39
                      A                      A                      A
 Frequencies --   3015.4048              3017.0351              3025.4368
 Red. masses --      1.0460                 1.0451                 1.0455
 Frc consts  --      5.6036                 5.6047                 5.6381
 IR Inten    --      8.2788                 5.5833                13.8104

                     40                     41                     42
                      A                      A                      A
 Frequencies --   3112.7910              3113.3324              3116.5294
 Red. masses --      1.0914                 1.0542                 1.0912
 Frc consts  --      6.2308                 6.0202                 6.2446
 IR Inten    --      6.4096                12.8797                 7.3092

                     43                     44                     45
                      A                      A                      A
 Frequencies --   3122.7576              3161.8817              3164.9688
 Red. masses --      1.0915                 1.1088                 1.1089
 Frc consts  --      6.2714                 6.5310                 6.5448
 IR Inten    --      7.3099                 0.9617                 0.6961

                     46                     47                     48
                      A                      A                      A
 Frequencies --   3173.1630              3250.2419              3666.2434
 Red. masses --      1.1086                 1.1253                 1.0672
 Frc consts  --      6.5768                 7.0042                 8.4517
 IR Inten    --      0.3512                 1.9582               247.7036

                           ! Non-Optimized Parameters !
 Normal termination of Gaussian 16 at Mon Jul 10 19:28:56 2023.
