 Gaussian 16, Revision B.01,
 Gaussian 16:  ES64L-G16RevB.01 20-Dec-2017

 ----------------------------------------------------------------------
 #T wB97XD/def2svpp opt=tight freq int(grid=ultrafine) scf=(verytight,q
 c)
 ----------------------------------------------------------------------
 --------------
 Comment gs min
 --------------
 Symbolic Z-matrix:
 Charge =  0 Multiplicity = 1

 SCF Done:  E(RwB97XD) =  -597.193055943     a.u. after    7 cycles
 SCF Done:  E(RwB97XD) =  -597.199773809     a.u. after   10 cycles
 SCF Done:  E(RwB97XD) =  -597.200845171     a.u. after    9 cycles
 SCF Done:  E(RwB97XD) =  -597.202576635     a.u. after    9 cycles
 SCF Done:  E(RwB97XD) =  -597.203498664     a.u. after    6 cycles
 SCF Done:  E(RwB97XD) =  -597.204056629     a.u. after    9 cycles
 SCF Done:  E(RwB97XD) =  -597.203971660     a.u. after    9 cycles
 SCF Done:  E(RwB97XD) =  -597.204435523     a.u. after    6 cycles
 SCF Done:  E(RwB97XD) =  -597.204608848     a.u. after    7 cycles
 SCF Done:  E(RwB97XD) =  -597.204661461     a.u. after    6 cycles
 SCF Done:  E(RwB97XD) =  -597.204676346     a.u. after    2 cycles
 SCF Done:  E(RwB97XD) =  -597.204676788     a.u. after    3 cycles
 SCF Done:  E(RwB97XD) =  -597.204677000     a.u. after    2 cycles
 SCF Done:  E(RwB97XD) =  -597.204677240     a.u. after    3 cycles
 SCF Done:  E(RwB97XD) =  -597.204677324     a.u. after    2 cycles
 SCF Done:  E(RwB97XD) =  -597.204677351     a.u. after    2 cycles
 SCF Done:  E(RwB97XD) =  -597.204677350     a.u. after    2 cycles
 SCF Done:  E(RwB97XD) =  -597.204677352     a.u. after    2 cycles
 SCF Done:  E(RwB97XD) =  -597.204677352     a.u. after    2 cycles
 Optimization completed.
    -- Stationary point found.
 Normal termination of Gaussian 16 at Thu Aug  4 16:29:14 2022.

 ---------------------------------------------------------------------
 #T Geom=AllCheck Guess=TCheck SCRF=Check GenChk RwB97XD/def2SVPP Freq
 ---------------------------------------------------------------------
 Structure from the checkpoint file:  "/scratch/user/peterchao1/peterchao1/6097788_1659647563000000666743758/Gau-209693.chk"
 --------------
 Comment gs min
 --------------
 Charge =  0 Multiplicity = 1

                         Standard orientation:
 ---------------------------------------------------------------------
 Center     Atomic      Atomic             Coordinates (Angstroms)
 Number     Number       Type             X           Y           Z
 ---------------------------------------------------------------------
      1          8           0       -0.180798    2.373206   -0.179375
      2          6           0        0.301781    1.238523   -0.856637
      3          6           0        0.025273   -0.003539   -0.005779
      4          6           0        0.391126   -1.279948   -0.789668
      5          8           0        1.777573   -1.387636   -1.073202
      6          6           0        0.841513    0.071069    1.307236
      7          8           0        2.210800    0.262103    1.086828
      8          6           0       -1.465486   -0.047257    0.336974
      9          8           0       -2.202980   -0.176513   -0.816079
     10          9           0       -1.718148   -1.128933    1.165762
     11          1           0        0.194245    3.166817   -0.578867
     12          1           0        1.394983    1.308922   -1.010173
     13          1           0       -0.193808    1.123666   -1.842296
     14          1           0       -0.204891   -1.342373   -1.717614
     15          1           0        0.138503   -2.157487   -0.175947
     16          1           0        1.993326   -0.837861   -1.837707
     17          1           0        0.646695   -0.847286    1.896271
     18          1           0        0.491167    0.929988    1.902082
     19          1           0        2.496252   -0.441542    0.479160
     20          1           0       -1.756644    0.847942    0.912979
     21          1           0       -3.138496   -0.032767   -0.617885
 ---------------------------------------------------------------------

 SCF Done:  E(RwB97XD) =  -597.204677352     a.u. after    1 cycles

 The electronic state is 1-A.
 Alpha  occ. eigenvalues --  -24.79814 -19.28029 -19.27412 -19.25882 -19.22901
 Alpha  occ. eigenvalues --  -10.41939 -10.34535 -10.34414 -10.32627 -10.31000
 Alpha  occ. eigenvalues --   -1.28710  -1.14462  -1.13447  -1.12161  -1.09430
 Alpha  occ. eigenvalues --   -0.90750  -0.77817  -0.77226  -0.75684  -0.66383
 Alpha  occ. eigenvalues --   -0.65546  -0.62988  -0.61313  -0.60358  -0.58539
 Alpha  occ. eigenvalues --   -0.56058  -0.54563  -0.52808  -0.51289  -0.49695
 Alpha  occ. eigenvalues --   -0.47979  -0.47579  -0.46566  -0.44632  -0.43874
 Alpha  occ. eigenvalues --   -0.41534  -0.40331  -0.39136  -0.36415  -0.35738
 Alpha  occ. eigenvalues --   -0.33802
 Alpha virt. eigenvalues --    0.11683   0.12471   0.13625   0.17876   0.19093
 Alpha virt. eigenvalues --    0.19648   0.20812   0.21770   0.23030   0.23605
 Alpha virt. eigenvalues --    0.24596   0.25134   0.28700   0.29268   0.30596

 Mulliken charges:
               1
     1  O   -0.489483
     2  C    0.053576
     3  C   -0.391538
     4  C    0.038295
     5  O   -0.499621
     6  C    0.091804
     7  O   -0.504387
     8  C    0.332421
     9  O   -0.436152
    10  F   -0.267453
    11  H    0.324518
    12  H    0.088534
    13  H    0.100357
    14  H    0.124648
    15  H    0.127466
    16  H    0.330272
    17  H    0.103604
    18  H    0.110374
    19  H    0.322154
    20  H    0.106129
    21  H    0.334483
 Sum of Mulliken charges =   0.00000

 Dipole moment (field-independent basis, Debye):
    X=             -1.5042    Y=              1.6410    Z=             -3.0299  Tot=              3.7597
  Exact polarizability:  65.753  -0.119  62.815  -0.585  -0.233  62.189
 Approx polarizability:  69.198   0.028  67.046  -1.440  -0.501  67.929
   1 Symmetry operations used in ECPInt.
 ECPInt:  NShTT=    3403 NPrTT=   13693 LenC2=    3355 LenP2D=   10472.
 LDataN:  DoStor=T MaxTD1= 6 Len=  172
 Calling FoFJK, ICntrl=    100127 FMM=F ISym2X=0 I1Cent= 0 IOpClX= 0 NMat=1 NMatS=1 NMatT=0.
 Full mass-weighted force constant matrix:
 Low frequencies ---   -6.1813   -2.2247   -0.0012   -0.0011    0.0010    6.7086
 Low frequencies ---   75.2105  102.1074  131.5041
 Diagonal vibrational polarizability:

                      1                      2                      3
                      A                      A                      A
 Frequencies --     75.2090               102.1035               131.5039
 Red. masses --      4.7389                 5.7231                 3.5156
 Frc consts  --      0.0158                 0.0352                 0.0358
 IR Inten    --      2.5626                 3.2618                 2.7038

                      4                      5                      6
                      A                      A                      A
 Frequencies --    161.1385               179.3009               196.6328
 Red. masses --      3.1622                 3.7057                 1.2939
 Frc consts  --      0.0484                 0.0702                 0.0295
 IR Inten    --     22.8230                16.2732                85.3195

                      7                      8                      9
                      A                      A                      A
 Frequencies --    229.9480               262.0741               312.8713
 Red. masses --      3.6805                 4.4123                 3.3491
 Frc consts  --      0.1147                 0.1786                 0.1932
 IR Inten    --      4.1136                10.5908                 6.9663

                     10                     11                     12
                      A                      A                      A
 Frequencies --    332.3513               350.2125               368.6878
 Red. masses --      1.9799                 1.7224                 1.3973
 Frc consts  --      0.1288                 0.1245                 0.1119
 IR Inten    --     56.6807                74.2553                68.3950

                     13                     14                     15
                      A                      A                      A
 Frequencies --    375.5886               399.0804               484.9910
 Red. masses --      1.8895                 4.5507                 3.6878
 Frc consts  --      0.1570                 0.4270                 0.5111
 IR Inten    --     74.3815                19.4480                 8.9010

                     16                     17                     18
                      A                      A                      A
 Frequencies --    565.9372               600.9118               652.3963
 Red. masses --      4.3360                 4.3039                 1.1574
 Frc consts  --      0.8182                 0.9157                 0.2902
 IR Inten    --     69.3964                10.1620               137.9594

                     19                     20                     21
                      A                      A                      A
 Frequencies --    706.9685               783.1071               909.3997
 Red. masses --      4.0161                 2.9613                 1.8451
 Frc consts  --      1.1826                 1.0700                 0.8991
 IR Inten    --     40.3772                 3.4226                12.8870

                     22                     23                     24
                      A                      A                      A
 Frequencies --    945.8089               990.5541              1070.6234
 Red. masses --      1.4349                 2.0897                 4.7113
 Frc consts  --      0.7563                 1.2080                 3.1817
 IR Inten    --      7.6575                 9.9263               105.0249

                     25                     26                     27
                      A                      A                      A
 Frequencies --   1106.7592              1128.5284              1132.6512
 Red. masses --      5.9320                 3.5189                 3.0087
 Frc consts  --      4.2811                 2.6405                 2.2742
 IR Inten    --     55.7597                58.3119                60.1363

                     28                     29                     30
                      A                      A                      A
 Frequencies --   1154.3176              1172.6989              1198.3087
 Red. masses --      1.7973                 2.2108                 2.8732
 Frc consts  --      1.4110                 1.7913                 2.4308
 IR Inten    --    131.5192                28.3797                43.6389

                     31                     32                     33
                      A                      A                      A
 Frequencies --   1214.0558              1245.9165              1275.6322
 Red. masses --      1.9582                 1.1389                 1.4327
 Frc consts  --      1.7005                 1.0416                 1.3736
 IR Inten    --     81.0338                43.3782                88.9136

                     34                     35                     36
                      A                      A                      A
 Frequencies --   1306.9415              1330.2000              1354.6623
 Red. masses --      1.2864                 1.4577                 1.5755
 Frc consts  --      1.2946                 1.5197                 1.7034
 IR Inten    --      0.7013                20.2587                60.0463

                     37                     38                     39
                      A                      A                      A
 Frequencies --   1386.5344              1401.3131              1413.7140
 Red. masses --      1.2427                 1.2721                 1.2167
 Frc consts  --      1.4076                 1.4717                 1.4327
 IR Inten    --      4.3532                20.0354                15.0324

                     40                     41                     42
                      A                      A                      A
 Frequencies --   1441.8849              1475.4958              1480.5785
 Red. masses --      1.3855                 1.4531                 1.3890
 Frc consts  --      1.6971                 1.8639                 1.7940
 IR Inten    --      8.3848                 5.2153                98.0775

                     43                     44                     45
                      A                      A                      A
 Frequencies --   1497.1637              1506.4803              1517.4117
 Red. masses --      1.3896                 1.1080                 1.0890
 Frc consts  --      1.8352                 1.4815                 1.4773
 IR Inten    --      4.4764                23.2293                 0.6884

                     46                     47                     48
                      A                      A                      A
 Frequencies --   1529.5351              3006.1939              3020.9824
 Red. masses --      1.1157                 1.0610                 1.0688
 Frc consts  --      1.5379                 5.6495                 5.7468
 IR Inten    --      8.6444                49.3820                43.6123

                     49                     50                     51
                      A                      A                      A
 Frequencies --   3061.7378              3068.0866              3092.7991
 Red. masses --      1.0680                 1.1032                 1.0890
 Frc consts  --      5.8985                 6.1185                 6.1373
 IR Inten    --     16.3747                41.0342                28.0691

                     52                     53                     54
                      A                      A                      A
 Frequencies --   3118.7990              3145.5008              3676.1146
 Red. masses --      1.0999                 1.1051                 1.0651
 Frc consts  --      6.3037                 6.4423                 8.4805
 IR Inten    --     26.5070                11.9193               138.1103

                     55                     56                     57
                      A                      A                      A
 Frequencies --   3772.1506              3786.1346              3805.0122
 Red. masses --      1.0662                 1.0664                 1.0668
 Frc consts  --      8.9384                 9.0068                 9.1000
 IR Inten    --     67.3683                39.5450                53.1027

                           ! Non-Optimized Parameters !
 Normal termination of Gaussian 16 at Thu Aug  4 16:31:55 2022.
