 Gaussian 16, Revision B.01,
 Gaussian 16:  ES64L-G16RevB.01 20-Dec-2017

 ----------------------------------------------------------------------
 #T wB97XD/def2svpp opt=tight freq int(grid=ultrafine) scf=(verytight,q
 c) Volume=tight
 ----------------------------------------------------------------------
 -------
 Monomer
 -------
 Symbolic Z-matrix:
 Charge =  0 Multiplicity = 1

 SCF Done:  E(RwB97XD) =  -79.7308951314     a.u. after    6 cycles
 SCF Done:  E(RwB97XD) =  -79.7320083274     a.u. after    4 cycles
 SCF Done:  E(RwB97XD) =  -79.7320259337     a.u. after    3 cycles
 SCF Done:  E(RwB97XD) =  -79.7320280127     a.u. after    2 cycles
 SCF Done:  E(RwB97XD) =  -79.7320278290     a.u. after    2 cycles
 Optimization completed.
    -- Stationary point found.
 Normal termination of Gaussian 16 at Mon Feb  6 10:15:55 2023.

 ---------------------------------------------------------------------
 #T Geom=AllCheck Guess=TCheck SCRF=Check GenChk RwB97XD/def2SVPP Freq
 ---------------------------------------------------------------------
 Structure from the checkpoint file:  "7.chk"
 -------
 Monomer
 -------
 Charge =  0 Multiplicity = 1

                         Standard orientation:
 ---------------------------------------------------------------------
 Center     Atomic      Atomic             Coordinates (Angstroms)
 Number     Number       Type             X           Y           Z
 ---------------------------------------------------------------------
      1          6           0        0.762735    0.000001   -0.000001
      2          6           0       -0.762735   -0.000001    0.000001
      3          1           0        1.164817   -0.830246   -0.606194
      4          1           0        1.164797   -0.109881    1.022108
      5          1           0        1.164833    0.940109   -0.415887
      6          1           0       -1.164833   -0.940109    0.415886
      7          1           0       -1.164797    0.109882   -1.022108
      8          1           0       -1.164817    0.830245    0.606194
 ---------------------------------------------------------------------

 SCF Done:  E(RwB97XD) =  -79.7320278290     a.u. after    1 cycles

 The electronic state is 1-A.
 Alpha  occ. eigenvalues --  -10.28032 -10.28026  -0.84185  -0.69974  -0.51949
 Alpha  occ. eigenvalues --   -0.51948  -0.45173  -0.42266  -0.42266
 Alpha virt. eigenvalues --    0.14766   0.19493   0.20702   0.20702   0.24108
 Alpha virt. eigenvalues --    0.24108   0.31509   0.50708   0.50708   0.51771
 Alpha virt. eigenvalues --    0.63178   0.63180   0.72170   0.76293   0.79956

 Mulliken charges:
               1
     1  C   -0.357275
     2  C   -0.357275
     3  H    0.119094
     4  H    0.119089
     5  H    0.119092
     6  H    0.119092
     7  H    0.119089
     8  H    0.119094
 Sum of Mulliken charges =  -0.00000

 Dipole moment (field-independent basis, Debye):
    X=             -0.0000    Y=             -0.0000    Z=              0.0000  Tot=              0.0000
  Exact polarizability:  24.375  -0.004  22.319   0.001   0.004  22.325
 Approx polarizability:  21.607   0.000  21.973  -0.000   0.000  21.973
   1 Symmetry operations used in ECPInt.
 ECPInt:  NShTT=     300 NPrTT=    1220 LenC2=     301 LenP2D=    1136.
 LDataN:  DoStor=T MaxTD1= 6 Len=  172
 Calling FoFJK, ICntrl=    100127 FMM=F ISym2X=0 I1Cent= 0 IOpClX= 0 NMat=1 NMatS=1 NMatT=0.
 Full mass-weighted force constant matrix:
 Low frequencies ---  -17.1247   -0.0009    0.0002    0.0003   13.5184   30.0666
 Low frequencies ---  320.4745  835.0017  836.3182
 Diagonal vibrational polarizability:

                      1                      2                      3
                      A                      A                      A
 Frequencies --    320.4745               835.0017               836.3182
 Red. masses --      1.0078                 1.0577                 1.0578
 Frc consts  --      0.0610                 0.4345                 0.4359
 IR Inten    --      0.0001                 5.9865                 6.0109

                      4                      5                      6
                      A                      A                      A
 Frequencies --   1032.1755              1225.7192              1225.9638
 Red. masses --      2.9199                 1.4724                 1.4726
 Frc consts  --      1.8328                 1.3034                 1.3041
 IR Inten    --      0.0000                 0.0000                 0.0000

                      7                      8                      9
                      A                      A                      A
 Frequencies --   1405.5369              1442.3762              1498.4261
 Red. masses --      1.1961                 1.3085                 1.0162
 Frc consts  --      1.3922                 1.6039                 1.3443
 IR Inten    --      1.6801                 0.0000                 0.0000

                     10                     11                     12
                      A                      A                      A
 Frequencies --   1498.5015              1498.6832              1498.8401
 Red. masses --      1.0600                 1.0163                 1.0600
 Frc consts  --      1.4024                 1.3449                 1.4030
 IR Inten    --     13.3924                 0.0000                13.3703

                     13                     14                     15
                      A                      A                      A
 Frequencies --   3033.1620              3035.8539              3114.5868
 Red. masses --      1.0358                 1.0405                 1.1049
 Frc consts  --      5.6144                 5.6501                 6.3148
 IR Inten    --     53.8448                 0.0000                 0.0000

                     16                     17                     18
                      A                      A                      A
 Frequencies --   3115.7057              3134.7864              3135.9049
 Red. masses --      1.1049                 1.1050                 1.1050
 Frc consts  --      6.3194                 6.3978                 6.4024
 IR Inten    --      0.0000                48.6239                48.5794

 Optimization completed.
    -- Stationary point found.
 Normal termination of Gaussian 16 at Mon Feb  6 10:16:17 2023.
