 Gaussian 16, Revision B.01,
 Gaussian 16:  ES64L-G16RevB.01 20-Dec-2017

 ----------------------------------------------------------------------
 #T wB97XD/def2svpp opt=tight freq int(grid=ultrafine) scf=(verytight,q
 c) Volume=tight
 ----------------------------------------------------------------------
 -----
 Dimer
 -----
 Symbolic Z-matrix:
 Charge =  0 Multiplicity = 1

 SCF Done:  E(RwB97XD) =  -575.071350491     a.u. after    7 cycles
 SCF Done:  E(RwB97XD) =  -575.074909624     a.u. after    7 cycles
 SCF Done:  E(RwB97XD) =  -575.075070422     a.u. after    4 cycles
 SCF Done:  E(RwB97XD) =  -575.075140230     a.u. after    5 cycles
 SCF Done:  E(RwB97XD) =  -575.075163279     a.u. after    4 cycles
 SCF Done:  E(RwB97XD) =  -575.075185670     a.u. after    3 cycles
 SCF Done:  E(RwB97XD) =  -575.075192495     a.u. after    2 cycles
 SCF Done:  E(RwB97XD) =  -575.075192837     a.u. after    2 cycles
 SCF Done:  E(RwB97XD) =  -575.075192931     a.u. after    2 cycles
 SCF Done:  E(RwB97XD) =  -575.075192980     a.u. after    2 cycles
 SCF Done:  E(RwB97XD) =  -575.075193022     a.u. after    2 cycles
 SCF Done:  E(RwB97XD) =  -575.075193022     a.u. after    2 cycles
 SCF Done:  E(RwB97XD) =  -575.075193022     a.u. after    2 cycles
 SCF Done:  E(RwB97XD) =  -575.075193022     a.u. after    2 cycles
 SCF Done:  E(RwB97XD) =  -575.075193022     a.u. after    2 cycles
 SCF Done:  E(RwB97XD) =  -575.075193023     a.u. after    2 cycles
 SCF Done:  E(RwB97XD) =  -575.075193023     a.u. after    2 cycles
 SCF Done:  E(RwB97XD) =  -575.075193023     a.u. after    2 cycles
 SCF Done:  E(RwB97XD) =  -575.075193023     a.u. after    2 cycles
 Optimization completed.
    -- Stationary point found.
 Normal termination of Gaussian 16 at Mon Apr  1 15:27:50 2024.

 ---------------------------------------------------------------------
 #T Geom=AllCheck Guess=TCheck SCRF=Check GenChk RwB97XD/def2SVPP Freq
 ---------------------------------------------------------------------
 Structure from the checkpoint file:  "dimer.chk"
 -----
 Dimer
 -----
 Charge =  0 Multiplicity = 1

                         Standard orientation:
 ---------------------------------------------------------------------
 Center     Atomic      Atomic             Coordinates (Angstroms)
 Number     Number       Type             X           Y           Z
 ---------------------------------------------------------------------
      1          6           0        4.166637    1.270244    0.169048
      2          6           0        3.543958   -0.000052   -0.420282
      3          6           0        4.166685   -1.270150    0.169420
      4          6           0        2.021821   -0.000054   -0.277463
      5          7           0        1.530535    0.000096    0.975764
      6          8           0        1.301649   -0.000183   -1.272395
      7          1           0        5.248385    1.302812   -0.048379
      8          1           0        4.048377    1.313982    1.266787
      9          1           0        3.705457    2.176823   -0.257854
     10          1           0        3.710755   -0.000208   -1.508504
     11          1           0        3.705539   -2.176872   -0.257215
     12          1           0        4.048430   -1.313572    1.267172
     13          1           0        5.248434   -1.302741   -0.047998
     14          1           0        2.148377    0.000206    1.776520
     15          1           0        0.507160    0.000121    1.130931
     16          6           0       -4.166637    1.270203   -0.169337
     17          6           0       -3.543958    0.000042    0.420283
     18          6           0       -4.166685   -1.270191   -0.169129
     19          6           0       -2.021821    0.000018    0.277462
     20          7           0       -1.530536   -0.000157   -0.975765
     21          8           0       -1.301648    0.000163    1.272393
     22          1           0       -4.048363    1.313697   -1.267084
     23          1           0       -3.705466    2.176879    0.257369
     24          1           0       -5.248388    1.302815    0.048070
     25          1           0       -3.710754    0.000135    1.508504
     26          1           0       -3.705530   -2.176816    0.257701
     27          1           0       -4.048445   -1.313857   -1.266873
     28          1           0       -5.248432   -1.302738    0.048310
     29          1           0       -2.148378   -0.000267   -1.776520
     30          1           0       -0.507161   -0.000171   -1.130933
 ---------------------------------------------------------------------

 SCF Done:  E(RwB97XD) =  -575.075193023     a.u. after    1 cycles

 The electronic state is 1-A.
 Alpha  occ. eigenvalues --  -19.21592 -19.21592 -14.44045 -14.44044 -10.39212
 Alpha  occ. eigenvalues --  -10.39212 -10.30434 -10.30433 -10.29241 -10.29241
 Alpha  occ. eigenvalues --  -10.29241 -10.29241  -1.12089  -1.11606  -0.98561
 Alpha  occ. eigenvalues --   -0.97959  -0.89202  -0.89012  -0.78193  -0.78192
 Alpha  occ. eigenvalues --   -0.72717  -0.71635  -0.65715  -0.65476  -0.62100
 Alpha  occ. eigenvalues --   -0.61926  -0.56461  -0.54677  -0.53435  -0.53429
 Alpha  occ. eigenvalues --   -0.52432  -0.52243  -0.50802  -0.49885  -0.48193
 Alpha  occ. eigenvalues --   -0.48135  -0.46195  -0.45939  -0.45263  -0.45216
 Alpha  occ. eigenvalues --   -0.42667  -0.42551  -0.42314  -0.42169  -0.34678
 Alpha  occ. eigenvalues --   -0.34048  -0.33863  -0.32315
 Alpha virt. eigenvalues --    0.10888   0.11447   0.12459   0.12692   0.16388
 Alpha virt. eigenvalues --    0.16420   0.19017   0.19029   0.19473   0.19515
 Alpha virt. eigenvalues --    0.21104   0.21407   0.23392   0.23406   0.24154

 Mulliken charges:
               1
     1  C   -0.305453
     2  C   -0.205275
     3  C   -0.305453
     4  C    0.186682
     5  N   -0.437156
     6  O   -0.318896
     7  H    0.126105
     8  H    0.105912
     9  H    0.136908
    10  H    0.110267
    11  H    0.136908
    12  H    0.105912
    13  H    0.126105
    14  H    0.250788
    15  H    0.286646
    16  C   -0.305452
    17  C   -0.205275
    18  C   -0.305454
    19  C    0.186682
    20  N   -0.437156
    21  O   -0.318896
    22  H    0.105912
    23  H    0.136908
    24  H    0.126105
    25  H    0.110267
    26  H    0.136908
    27  H    0.105912
    28  H    0.126105
    29  H    0.250788
    30  H    0.286646
 Sum of Mulliken charges =  -0.00000

 Dipole moment (field-independent basis, Debye):
    X=             -0.0000    Y=              0.0000    Z=              0.0000  Tot=              0.0000
  Exact polarizability: 125.322   0.001  86.254   4.520   0.002  99.113
 Approx polarizability: 110.765   0.001  87.820   6.581   0.005 123.212
   1 Symmetry operations used in ECPInt.
 ECPInt:  NShTT=    5886 NPrTT=   23646 LenC2=    5474 LenP2D=   15628.
 LDataN:  DoStor=T MaxTD1= 6 Len=  172
 Calling FoFJK, ICntrl=    100127 FMM=F ISym2X=0 I1Cent= 0 IOpClX= 0 NMat=1 NMatS=1 NMatT=0.
 Full mass-weighted force constant matrix:
 Low frequencies ---   -3.4675   -0.0005    0.0005    0.0012    3.2203   13.4021
 Low frequencies ---   16.1803   26.5672   33.7865
 Diagonal vibrational polarizability:

                      1                      2                      3
                      A                      A                      A
 Frequencies --     16.1803                26.5653                33.7865
 Red. masses --      3.0475                 3.5303                 2.9891
 Frc consts  --      0.0005                 0.0015                 0.0020
 IR Inten    --      0.9165                 0.0000                 2.5604

                      4                      5                      6
                      A                      A                      A
 Frequencies --     66.3343                75.1577               100.9802
 Red. masses --      6.7327                 5.0431                 3.8219
 Frc consts  --      0.0175                 0.0168                 0.0230
 IR Inten    --      9.2393                 0.0000                15.6082

                      7                      8                      9
                      A                      A                      A
 Frequencies --    118.1601               131.3737               224.8871
 Red. masses --      4.7942                 6.3145                 1.3405
 Frc consts  --      0.0394                 0.0642                 0.0399
 IR Inten    --      0.0000                 0.0000                 1.5349

                     10                     11                     12
                      A                      A                      A
 Frequencies --    230.2693               256.6811               260.4123
 Red. masses --      1.2333                 1.9211                 2.3686
 Frc consts  --      0.0385                 0.0746                 0.0946
 IR Inten    --      0.0000                 8.8396                 0.0000

                     13                     14                     15
                      A                      A                      A
 Frequencies --    261.8015               262.5200               313.7553
 Red. masses --      1.0600                 1.0507                 2.5657
 Frc consts  --      0.0428                 0.0427                 0.1488
 IR Inten    --      0.0000                 0.9924                 8.2975

                     16                     17                     18
                      A                      A                      A
 Frequencies --    317.9100               346.2702               368.6432
 Red. masses --      2.9248                 2.6523                 2.9202
 Frc consts  --      0.1742                 0.1874                 0.2338
 IR Inten    --      0.0000                 0.0000                58.9072

                     19                     20                     21
                      A                      A                      A
 Frequencies --    491.7521               491.9174               544.1946
 Red. masses --      1.1231                 1.1573                 3.7023
 Frc consts  --      0.1600                 0.1650                 0.6460
 IR Inten    --    227.0640                 0.0001                 0.0000

                     22                     23                     24
                      A                      A                      A
 Frequencies --    546.7961               589.9626               601.3354
 Red. masses --      4.1458                 2.5393                 2.4286
 Frc consts  --      0.7303                 0.5207                 0.5174
 IR Inten    --     45.8663                 0.0000                 5.2348

                     25                     26                     27
                      A                      A                      A
 Frequencies --    773.6749               784.2840               806.0565
 Red. masses --      3.5859                 4.2301                 2.6580
 Frc consts  --      1.2646                 1.5330                 1.0175
 IR Inten    --      4.9717                 0.0000                 0.0000

                     28                     29                     30
                      A                      A                      A
 Frequencies --    815.0854               860.6775               907.4805
 Red. masses --      2.7692                 1.1022                 1.1779
 Frc consts  --      1.0840                 0.4811                 0.5715
 IR Inten    --     24.5278                 0.0000               132.6347

                     31                     32                     33
                      A                      A                      A
 Frequencies --    943.1736               943.2700               951.2465
 Red. masses --      2.1104                 2.1111                 1.1698
 Frc consts  --      1.1061                 1.1067                 0.6237
 IR Inten    --     10.0884                 0.0000                 0.0000

                     34                     35                     36
                      A                      A                      A
 Frequencies --    951.6363               987.4729               987.7713
 Red. masses --      1.1755                 1.4252                 1.4266
 Frc consts  --      0.6272                 0.8188                 0.8201
 IR Inten    --      7.6847                 0.0000                 0.0041

                     37                     38                     39
                      A                      A                      A
 Frequencies --   1097.4886              1099.3883              1152.4111
 Red. masses --      1.5252                 1.5222                 2.3583
 Frc consts  --      1.0824                 1.0840                 1.8453
 IR Inten    --     12.4048                 0.0000                 0.0000

                     40                     41                     42
                      A                      A                      A
 Frequencies --   1152.7882              1162.7387              1171.2646
 Red. masses --      2.3499                 1.5017                 1.5119
 Frc consts  --      1.8399                 1.1962                 1.2221
 IR Inten    --      1.9133                30.8462                 0.0000

                     43                     44                     45
                      A                      A                      A
 Frequencies --   1203.5215              1203.7843              1351.0959
 Red. masses --      1.8512                 1.8387                 1.4919
 Frc consts  --      1.5798                 1.5698                 1.6046
 IR Inten    --      4.0106                 0.0000                20.8491

                     46                     47                     48
                      A                      A                      A
 Frequencies --   1351.9011              1367.4332              1367.4447
 Red. masses --      1.5049                 1.3231                 1.3237
 Frc consts  --      1.6204                 1.4577                 1.4584
 IR Inten    --      0.0000                 0.0000                 1.2709

                     49                     50                     51
                      A                      A                      A
 Frequencies --   1414.5840              1414.6276              1421.8486
 Red. masses --      1.2987                 1.2986                 1.4506
 Frc consts  --      1.5312                 1.5311                 1.7278
 IR Inten    --      0.0000                11.0026                46.0974

                     52                     53                     54
                      A                      A                      A
 Frequencies --   1425.1031              1458.1597              1469.8247
 Red. masses --      1.3409                 2.0256                 2.0241
 Frc consts  --      1.6045                 2.5375                 2.5763
 IR Inten    --      0.0000               113.9542                 0.0000

                     55                     56                     57
                      A                      A                      A
 Frequencies --   1478.9407              1478.9675              1489.9004
 Red. masses --      1.0442                 1.0443                 1.0470
 Frc consts  --      1.3457                 1.3459                 1.3693
 IR Inten    --      0.0000                 1.8384                 0.0000

                     58                     59                     60
                      A                      A                      A
 Frequencies --   1489.9594              1501.3860              1501.4079
 Red. masses --      1.0470                 1.0557                 1.0556
 Frc consts  --      1.3694                 1.4021                 1.4020
 IR Inten    --      6.3333                22.8919                 0.0000

                     61                     62                     63
                      A                      A                      A
 Frequencies --   1506.7598              1509.8211              1680.7099
 Red. masses --      1.1830                 1.3216                 1.2903
 Frc consts  --      1.5824                 1.7749                 2.1475
 IR Inten    --     96.5091                 0.0000               133.5515

                     64                     65                     66
                      A                      A                      A
 Frequencies --   1683.2315              1799.2617              1835.7725
 Red. masses --      1.3990                 4.4398                 7.9738
 Frc consts  --      2.3354                 8.4684                15.8325
 IR Inten    --      0.0000                 0.0000               790.2451

                     67                     68                     69
                      A                      A                      A
 Frequencies --   3029.7894              3029.8157              3031.7672
 Red. masses --      1.0375                 1.0376                 1.0381
 Frc consts  --      5.6115                 5.6117                 5.6220
 IR Inten    --      0.0000                42.5239                48.6762

                     70                     71                     72
                      A                      A                      A
 Frequencies --   3031.8783              3097.9467              3097.9628
 Red. masses --      1.0381                 1.0902                 1.0902
 Frc consts  --      5.6225                 6.1644                 6.1645
 IR Inten    --      0.0000                 0.0000                 4.5149

                     73                     74                     75
                      A                      A                      A
 Frequencies --   3118.5887              3118.5931              3126.6957
 Red. masses --      1.1046                 1.1046                 1.1006
 Frc consts  --      6.3296                 6.3296                 6.3392
 IR Inten    --      2.7860                 0.0000               110.1259

                     76                     77                     78
                      A                      A                      A
 Frequencies --   3126.7084              3133.0289              3133.0768
 Red. masses --      1.1005                 1.1055                 1.1054
 Frc consts  --      6.3388                 6.3932                 6.3934
 IR Inten    --      0.0002                 0.0000                20.4737

                     79                     80                     81
                      A                      A                      A
 Frequencies --   3134.0268              3134.0369              3238.7128
 Red. masses --      1.1048                 1.1048                 1.0749
 Frc consts  --      6.3934                 6.3937                 6.6431
 IR Inten    --     40.9156                 0.0001                 0.0000

                     82                     83                     84
                      A                      A                      A
 Frequencies --   3294.1040              3671.5364              3671.6816
 Red. masses --      1.0731                 1.0841                 1.0843
 Frc consts  --      6.8607                 8.6105                 8.6125
 IR Inten    --   2177.6998               140.2160                 0.0000

                           ! Non-Optimized Parameters !
 Normal termination of Gaussian 16 at Mon Apr  1 15:32:23 2024.
