 Gaussian 16, Revision B.01,
 Gaussian 16:  ES64L-G16RevB.01 20-Dec-2017

 ----------------------------------------------------------------------
 #T wB97XD/def2svpp opt=tight freq int(grid=ultrafine) scf=(verytight,q
 c) Volume=tight
 ----------------------------------------------------------------------
 -----
 Dimer
 -----
 Symbolic Z-matrix:
 Charge =  0 Multiplicity = 1

 SCF Done:  E(RwB97XD) =  -771.864207516     a.u. after    8 cycles
 SCF Done:  E(RwB97XD) =  -771.868664413     a.u. after    7 cycles
 SCF Done:  E(RwB97XD) =  -771.868848214     a.u. after    5 cycles
 SCF Done:  E(RwB97XD) =  -771.868903601     a.u. after    5 cycles
 SCF Done:  E(RwB97XD) =  -771.868923226     a.u. after    5 cycles
 SCF Done:  E(RwB97XD) =  -771.868933390     a.u. after    5 cycles
 SCF Done:  E(RwB97XD) =  -771.868942997     a.u. after    4 cycles
 SCF Done:  E(RwB97XD) =  -771.868948583     a.u. after    3 cycles
 SCF Done:  E(RwB97XD) =  -771.868949834     a.u. after    2 cycles
 SCF Done:  E(RwB97XD) =  -771.868950340     a.u. after    2 cycles
 SCF Done:  E(RwB97XD) =  -771.868950506     a.u. after    2 cycles
 SCF Done:  E(RwB97XD) =  -771.868950507     a.u. after    2 cycles
 SCF Done:  E(RwB97XD) =  -771.868950506     a.u. after    2 cycles
 SCF Done:  E(RwB97XD) =  -771.868950506     a.u. after    2 cycles
 SCF Done:  E(RwB97XD) =  -771.868950506     a.u. after    2 cycles
 SCF Done:  E(RwB97XD) =  -771.868950506     a.u. after    2 cycles
 SCF Done:  E(RwB97XD) =  -771.868950506     a.u. after    2 cycles
 SCF Done:  E(RwB97XD) =  -771.868950506     a.u. after    2 cycles
 SCF Done:  E(RwB97XD) =  -771.868950506     a.u. after    2 cycles
 Optimization completed.
    -- Stationary point found.
 Normal termination of Gaussian 16 at Sun Feb  5 16:26:16 2023.

 ---------------------------------------------------------------------
 #T Geom=AllCheck Guess=TCheck SCRF=Check GenChk RwB97XD/def2SVPP Freq
 ---------------------------------------------------------------------
 Structure from the checkpoint file:  "14.chk"
 -----
 Dimer
 -----
 Charge =  0 Multiplicity = 1

                         Standard orientation:
 ---------------------------------------------------------------------
 Center     Atomic      Atomic             Coordinates (Angstroms)
 Number     Number       Type             X           Y           Z
 ---------------------------------------------------------------------
      1          6           0       -3.770092   -2.112670    0.105532
      2          6           0       -4.067534   -0.796187   -0.608166
      3          6           0       -3.396879    0.458648    0.001382
      4          6           0       -3.716248    1.676759   -0.885331
      5          6           0       -3.878670    0.717477    1.431387
      6          6           0       -1.886178    0.256175   -0.000306
      7          8           0       -1.382565    0.006903   -1.182135
      8          8           0       -1.207166    0.322238    1.015715
      9          1           0       -2.687214   -2.330216    0.120750
     10          1           0       -4.265128   -2.949908   -0.414736
     11          1           0       -4.129761   -2.110887    1.148100
     12          1           0       -5.158380   -0.616055   -0.614561
     13          1           0       -3.755543   -0.877841   -1.663208
     14          1           0       -3.229084    2.589300   -0.499326
     15          1           0       -4.806094    1.852589   -0.894612
     16          1           0       -3.380295    1.515883   -1.922408
     17          1           0       -4.978133    0.817897    1.441137
     18          1           0       -3.441615    1.646785    1.831928
     19          1           0       -3.594210   -0.096150    2.116562
     20          1           0       -0.381528   -0.120710   -1.129310
     21          6           0        3.770082    2.112672   -0.105549
     22          6           0        4.067531    0.796195    0.608158
     23          6           0        3.396880   -0.458647   -0.001380
     24          6           0        3.878670   -0.717485   -1.431383
     25          6           0        3.716256   -1.676750    0.885342
     26          6           0        1.886179   -0.256179    0.000309
     27          8           0        1.382567   -0.006899    1.182137
     28          8           0        1.207166   -0.322252   -1.015711
     29          1           0        2.687203    2.330214   -0.120763
     30          1           0        4.129746    2.110882   -1.148119
     31          1           0        4.265118    2.949915    0.414711
     32          1           0        3.755544    0.877855    1.663200
     33          1           0        5.158378    0.616068    0.614551
     34          1           0        4.978133   -0.817903   -1.441135
     35          1           0        3.594207    0.096137   -2.116563
     36          1           0        3.441617   -1.646796   -1.831917
     37          1           0        4.806102   -1.852575    0.894622
     38          1           0        3.229095   -2.589296    0.499345
     39          1           0        3.380304   -1.515868    1.922418
     40          1           0        0.381529    0.120707    1.129312
 ---------------------------------------------------------------------

 SCF Done:  E(RwB97XD) =  -771.868950506     a.u. after    1 cycles

 The electronic state is 1-A.
 Alpha  occ. eigenvalues --  -19.28910 -19.28909 -19.25859 -19.25857 -10.43613
 Alpha  occ. eigenvalues --  -10.43612 -10.32178 -10.32177 -10.29643 -10.29643
 Alpha  occ. eigenvalues --  -10.29017 -10.29017 -10.28491 -10.28491 -10.28253
 Alpha  occ. eigenvalues --  -10.28253  -1.21082  -1.19779  -1.11527  -1.10062
 Alpha  occ. eigenvalues --   -0.92820  -0.92557  -0.83421  -0.83364  -0.77995
 Alpha  occ. eigenvalues --   -0.77936  -0.76432  -0.74376  -0.71490  -0.70975
 Alpha  occ. eigenvalues --   -0.66665  -0.64803  -0.59875  -0.58255  -0.57712
 Alpha  occ. eigenvalues --   -0.56955  -0.56932  -0.56337  -0.53585  -0.53260
 Alpha  occ. eigenvalues --   -0.52183  -0.52092  -0.51702  -0.50289  -0.49339
 Alpha  occ. eigenvalues --   -0.48116  -0.47481  -0.47428  -0.46851  -0.46764
 Alpha  occ. eigenvalues --   -0.44955  -0.44804  -0.44231  -0.44023  -0.43271
 Alpha  occ. eigenvalues --   -0.43010  -0.41443  -0.41066  -0.41016  -0.40652
 Alpha  occ. eigenvalues --   -0.40583  -0.40341  -0.37570  -0.35926
 Alpha virt. eigenvalues --    0.07863   0.08345   0.13152   0.13499   0.16453
 Alpha virt. eigenvalues --    0.16753   0.17323   0.17860   0.18393   0.18587
 Alpha virt. eigenvalues --    0.20330   0.20378   0.20487   0.20862   0.21507

 Mulliken charges:
               1
     1  C   -0.325057
     2  C   -0.185745
     3  C   -0.304885
     4  C   -0.266426
     5  C   -0.249554
     6  C    0.300856
     7  O   -0.367238
     8  O   -0.317631
     9  H    0.129911
    10  H    0.125670
    11  H    0.123648
    12  H    0.106545
    13  H    0.124967
    14  H    0.123429
    15  H    0.122983
    16  H    0.139024
    17  H    0.112860
    18  H    0.123672
    19  H    0.132590
    20  H    0.350380
    21  C   -0.325057
    22  C   -0.185745
    23  C   -0.304885
    24  C   -0.249554
    25  C   -0.266426
    26  C    0.300856
    27  O   -0.367238
    28  O   -0.317631
    29  H    0.129911
    30  H    0.123648
    31  H    0.125670
    32  H    0.124967
    33  H    0.106545
    34  H    0.112860
    35  H    0.132590
    36  H    0.123672
    37  H    0.122983
    38  H    0.123429
    39  H    0.139024
    40  H    0.350380
 Sum of Mulliken charges =  -0.00000

 Dipole moment (field-independent basis, Debye):
    X=             -0.0000    Y=              0.0000    Z=             -0.0000  Tot=              0.0000
  Exact polarizability: 157.103  -1.504 129.217   3.469   0.643 128.148
 Approx polarizability: 148.098  -1.201 130.785   6.029   3.324 153.220
   1 Symmetry operations used in ECPInt.
 ECPInt:  NShTT=   10440 NPrTT=   41896 LenC2=    9580 LenP2D=   26557.
 LDataN:  DoStor=T MaxTD1= 6 Len=  172
 Calling FoFJK, ICntrl=    100127 FMM=F ISym2X=0 I1Cent= 0 IOpClX= 0 NMat=1 NMatS=1 NMatT=0.
 Full mass-weighted force constant matrix:
 Low frequencies ---   -2.2883   -0.0011    0.0005    0.0010    2.5980    4.5857
 Low frequencies ---   14.0393   24.7692   33.3433
 Diagonal vibrational polarizability:

                      1                      2                      3
                      A                      A                      A
 Frequencies --     14.0393                24.7692                33.3413
 Red. masses --      3.1680                 3.6187                 5.8154
 Frc consts  --      0.0004                 0.0013                 0.0038
 IR Inten    --      0.2933                 0.2484                 0.0000

                      4                      5                      6
                      A                      A                      A
 Frequencies --     63.0859                77.3946                92.0543
 Red. masses --      3.7269                 9.8005                 2.2779
 Frc consts  --      0.0087                 0.0346                 0.0114
 IR Inten    --      0.0000                 0.3055                 0.0922

                      7                      8                      9
                      A                      A                      A
 Frequencies --    100.2682               106.7255               130.5191
 Red. masses --      3.2595                 2.4376                 4.2219
 Frc consts  --      0.0193                 0.0164                 0.0424
 IR Inten    --      6.9573                 0.0000                 0.0000

                     10                     11                     12
                      A                      A                      A
 Frequencies --    142.2187               192.9154               208.6810
 Red. masses --      4.0348                 2.0391                 2.2941
 Frc consts  --      0.0481                 0.0447                 0.0589
 IR Inten    --      0.0000                 0.6990                 0.0000

                     13                     14                     15
                      A                      A                      A
 Frequencies --    233.2494               233.5217               255.1923
 Red. masses --      1.0948                 1.1270                 1.2105
 Frc consts  --      0.0351                 0.0362                 0.0464
 IR Inten    --      0.1695                 0.0000                 0.3394

                     16                     17                     18
                      A                      A                      A
 Frequencies --    258.4245               269.3596               274.2836
 Red. masses --      1.1685                 2.0675                 2.3447
 Frc consts  --      0.0460                 0.0884                 0.1039
 IR Inten    --      0.0000                 1.8365                 0.0000

                     19                     20                     21
                      A                      A                      A
 Frequencies --    298.8598               300.8714               319.4082
 Red. masses --      1.4816                 1.3175                 2.8650
 Frc consts  --      0.0780                 0.0703                 0.1722
 IR Inten    --      0.0000                 0.7780                 0.0000

                     22                     23                     24
                      A                      A                      A
 Frequencies --    345.0240               372.6844               378.6220
 Red. masses --      2.8716                 2.6515                 2.3724
 Frc consts  --      0.2014                 0.2170                 0.2004
 IR Inten    --     28.0818                 4.4786                 0.0000

                     25                     26                     27
                      A                      A                      A
 Frequencies --    393.2808               405.2172               463.5838
 Red. masses --      2.5916                 2.7971                 2.8061
 Frc consts  --      0.2362                 0.2706                 0.3553
 IR Inten    --     22.0514                 0.0000                 0.9423

                     28                     29                     30
                      A                      A                      A
 Frequencies --    466.5427               533.5504               573.0622
 Red. masses --      2.8653                 4.4386                 5.6044
 Frc consts  --      0.3675                 0.7445                 1.0844
 IR Inten    --      0.0000                 0.0000                71.8150

                     31                     32                     33
                      A                      A                      A
 Frequencies --    599.1797               607.1421               770.5004
 Red. masses --      3.3059                 3.6783                 2.6266
 Frc consts  --      0.6993                 0.7989                 0.9187
 IR Inten    --     12.1232                 0.0000                 0.0000

                     34                     35                     36
                      A                      A                      A
 Frequencies --    774.6197               787.1935               795.5685
 Red. masses --      2.0004                 2.4013                 4.2308
 Frc consts  --      0.7072                 0.8767                 1.5777
 IR Inten    --      1.3633                 0.0000                11.4486

                     37                     38                     39
                      A                      A                      A
 Frequencies --    813.0095               813.1970               893.3530
 Red. masses --      1.7906                 2.1563                 1.9939
 Frc consts  --      0.6973                 0.8401                 0.9376
 IR Inten    --     26.1432                 0.0000                 0.0000

                     40                     41                     42
                      A                      A                      A
 Frequencies --    898.5685               964.6808               964.9016
 Red. masses --      2.1648                 1.8104                 1.8127
 Frc consts  --      1.0298                 0.9926                 0.9944
 IR Inten    --     16.7301                 0.0000                 9.1056

                     43                     44                     45
                      A                      A                      A
 Frequencies --    972.6620               972.7388              1019.5178
 Red. masses --      1.4742                 1.4820                 1.0596
 Frc consts  --      0.8217                 0.8262                 0.6489
 IR Inten    --      0.0000                 3.8518                 0.0000

                     46                     47                     48
                      A                      A                      A
 Frequencies --   1025.2070              1025.2377              1037.8262
 Red. masses --      1.2764                 1.2758                 1.5097
 Frc consts  --      0.7904                 0.7901                 0.9580
 IR Inten    --      0.0000                 1.0443                19.8095

                     49                     50                     51
                      A                      A                      A
 Frequencies --   1037.9156              1058.9428              1087.0886
 Red. masses --      1.5101                 1.1074                 1.5942
 Frc consts  --      0.9585                 0.7316                 1.1100
 IR Inten    --      0.0000               183.9148                 5.1338

                     52                     53                     54
                      A                      A                      A
 Frequencies --   1087.1598              1102.9297              1102.9499
 Red. masses --      1.5986                 2.0155                 2.0077
 Frc consts  --      1.1132                 1.4445                 1.4390
 IR Inten    --      0.0000                 4.0263                 0.0002

                     55                     56                     57
                      A                      A                      A
 Frequencies --   1224.5479              1225.1084              1247.0351
 Red. masses --      2.6021                 2.5907                 2.2624
 Frc consts  --      2.2989                 2.2909                 2.0729
 IR Inten    --      0.0000                 9.2478                64.8311

                     58                     59                     60
                      A                      A                      A
 Frequencies --   1249.0943              1272.3051              1272.5579
 Red. masses --      2.2238                 2.9933                 3.0468
 Frc consts  --      2.0442                 2.8548                 2.9070
 IR Inten    --      0.0000                 5.9646                 0.0000

                     61                     62                     63
                      A                      A                      A
 Frequencies --   1325.8731              1326.0888              1378.7378
 Red. masses --      1.4493                 1.5007                 1.4344
 Frc consts  --      1.5011                 1.5549                 1.6065
 IR Inten    --    126.9145                 0.0000                 0.0000

                     64                     65                     66
                      A                      A                      A
 Frequencies --   1379.0294              1397.4233              1397.5164
 Red. masses --      1.4212                 1.5956                 1.4813
 Frc consts  --      1.5924                 1.8358                 1.7045
 IR Inten    --     17.9247                 0.0000               140.1771

                     67                     68                     69
                      A                      A                      A
 Frequencies --   1413.9383              1417.9433              1429.4571
 Red. masses --      1.3781                 1.6602                 1.2510
 Frc consts  --      1.6233                 1.9667                 1.5061
 IR Inten    --     45.7163                 0.0000                10.1568

                     70                     71                     72
                      A                      A                      A
 Frequencies --   1429.5540              1432.3474              1433.7376
 Red. masses --      1.2497                 1.3040                 1.3032
 Frc consts  --      1.5047                 1.5763                 1.5783
 IR Inten    --      0.0001                21.5466                 0.0000

                     73                     74                     75
                      A                      A                      A
 Frequencies --   1472.5809              1473.3295              1478.7719
 Red. masses --      1.1031                 1.0762                 1.1248
 Frc consts  --      1.4094                 1.3764                 1.4492
 IR Inten    --      2.3432                 0.0000                12.7022

                     76                     77                     78
                      A                      A                      A
 Frequencies --   1480.4818              1485.1136              1487.0837
 Red. masses --      1.0550                 1.1076                 1.0626
 Frc consts  --      1.3625                 1.4393                 1.3846
 IR Inten    --      0.0000                 7.3041                 0.0000

                     79                     80                     81
                      A                      A                      A
 Frequencies --   1492.2285              1494.5908              1494.7044
 Red. masses --      1.1480                 1.0635                 1.0629
 Frc consts  --      1.5061                 1.3998                 1.3991
 IR Inten    --     17.2398                 0.0000                 9.7759

                     82                     83                     84
                      A                      A                      A
 Frequencies --   1494.8642              1495.4871              1500.9305
 Red. masses --      1.0513                 1.0701                 1.0443
 Frc consts  --      1.3842                 1.4101                 1.3861
 IR Inten    --      0.0000                15.6726                 0.0000

                     85                     86                     87
                      A                      A                      A
 Frequencies --   1504.4050              1510.6076              1525.6207
 Red. masses --      1.1012                 1.0752                 1.4659
 Frc consts  --      1.4684                 1.4455                 2.0103
 IR Inten    --     50.1740                 0.0000               172.0788

                     88                     89                     90
                      A                      A                      A
 Frequencies --   1539.4057              1771.9549              1837.0653
 Red. masses --      1.7647                 6.0215                10.0731
 Frc consts  --      2.4639                11.1394                20.0292
 IR Inten    --      0.0000                 0.0000               759.6513

                     91                     92                     93
                      A                      A                      A
 Frequencies --   2951.1369              3034.6461              3034.8340
 Red. masses --      1.0869                 1.0376                 1.0376
 Frc consts  --      5.5774                 5.6297                 5.6304
 IR Inten    --      0.0000                72.4503                 0.0000

                     94                     95                     96
                      A                      A                      A
 Frequencies --   3036.9963              3037.0028              3043.9726
 Red. masses --      1.0387                 1.0386                 1.0519
 Frc consts  --      5.6444                 5.6440                 5.7426
 IR Inten    --     30.5582                 0.0006                31.4633

                     97                     98                     99
                      A                      A                      A
 Frequencies --   3043.9780              3046.5596              3047.3620
 Red. masses --      1.0526                 1.0528                 1.0516
 Frc consts  --      5.7465                 5.7575                 5.7536
 IR Inten    --      0.0001               279.2763                 0.0000

                    100                    101                    102
                      A                      A                      A
 Frequencies --   3082.4184              3104.3325              3104.4379
 Red. masses --      1.0667                 1.1026                 1.1024
 Frc consts  --      5.9715                 6.2603                 6.2595
 IR Inten    --   4699.9485                 0.0000                20.4922

                    103                    104                    105
                      A                      A                      A
 Frequencies --   3124.1713              3124.2050              3127.0786
 Red. masses --      1.1052                 1.1051                 1.1041
 Frc consts  --      6.3555                 6.3554                 6.3610
 IR Inten    --      0.0000                11.5026                 0.0000

                    106                    107                    108
                      A                      A                      A
 Frequencies --   3127.2441              3136.1055              3136.2285
 Red. masses --      1.1037                 1.1044                 1.1041
 Frc consts  --      6.3598                 6.3994                 6.3986
 IR Inten    --     13.1993                 0.0000                 7.5641

                    109                    110                    111
                      A                      A                      A
 Frequencies --   3138.1136              3138.1738              3147.5273
 Red. masses --      1.1047                 1.1046                 1.1048
 Frc consts  --      6.4093                 6.4093                 6.4487
 IR Inten    --      0.0001                45.3445                 0.0000

                    112                    113                    114
                      A                      A                      A
 Frequencies --   3147.5999              3156.4694              3156.4913
 Red. masses --      1.1047                 1.1036                 1.1036
 Frc consts  --      6.4485                 6.4784                 6.4784
 IR Inten    --     19.7039                 0.0002                23.7675

 Optimization completed.
    -- Stationary point found.
 Normal termination of Gaussian 16 at Sun Feb  5 16:37:31 2023.
