 Gaussian 16, Revision B.01,
 Gaussian 16:  ES64L-G16RevB.01 20-Dec-2017

 ----------------------------------------------------------------------
 #T wB97XD/def2svpp opt=tight freq int(grid=ultrafine) scf=(verytight,q
 c) Volume=tight
 ----------------------------------------------------------------------
 -------
 Monomer
 -------
 Symbolic Z-matrix:
 Charge =  0 Multiplicity = 1

 SCF Done:  E(RwB97XD) =  -307.371159029     a.u. after    8 cycles
 SCF Done:  E(RwB97XD) =  -307.372559876     a.u. after    5 cycles
 SCF Done:  E(RwB97XD) =  -307.372601100     a.u. after    3 cycles
 SCF Done:  E(RwB97XD) =  -307.372603950     a.u. after    2 cycles
 SCF Done:  E(RwB97XD) =  -307.372604046     a.u. after    2 cycles
 SCF Done:  E(RwB97XD) =  -307.372604036     a.u. after    2 cycles
 SCF Done:  E(RwB97XD) =  -307.372604066     a.u. after    2 cycles
 SCF Done:  E(RwB97XD) =  -307.372604066     a.u. after    2 cycles
 SCF Done:  E(RwB97XD) =  -307.372604066     a.u. after    2 cycles
 SCF Done:  E(RwB97XD) =  -307.372604066     a.u. after    2 cycles
 SCF Done:  E(RwB97XD) =  -307.372604067     a.u. after    2 cycles
 SCF Done:  E(RwB97XD) =  -307.372604067     a.u. after    2 cycles
 SCF Done:  E(RwB97XD) =  -307.372604067     a.u. after    2 cycles
 Optimization completed.
    -- Stationary point found.
 Normal termination of Gaussian 16 at Mon Feb  6 10:17:59 2023.

 ---------------------------------------------------------------------
 #T Geom=AllCheck Guess=TCheck SCRF=Check GenChk RwB97XD/def2SVPP Freq
 ---------------------------------------------------------------------
 Structure from the checkpoint file:  "32.chk"
 -------
 Monomer
 -------
 Charge =  0 Multiplicity = 1

                         Standard orientation:
 ---------------------------------------------------------------------
 Center     Atomic      Atomic             Coordinates (Angstroms)
 Number     Number       Type             X           Y           Z
 ---------------------------------------------------------------------
      1          6           0        2.725834   -0.207821    0.000000
      2          6           0        1.351556    0.455303   -0.000001
      3          6           0        0.215180   -0.560199    0.000000
      4          6           0       -1.154917    0.072394    0.000000
      5          8           0       -2.130253   -0.852418   -0.000000
      6          8           0       -1.388506    1.251345    0.000000
      7          1           0        2.864416   -0.845568   -0.891353
      8          1           0        2.864416   -0.845566    0.891355
      9          1           0        3.530063    0.547002   -0.000001
     10          1           0        1.247237    1.113158   -0.879755
     11          1           0        1.247237    1.113159    0.879753
     12          1           0        0.274436   -1.228553    0.878809
     13          1           0        0.274436   -1.228554   -0.878807
     14          1           0       -2.978073   -0.374550   -0.000000
 ---------------------------------------------------------------------

 SCF Done:  E(RwB97XD) =  -307.372604067     a.u. after    1 cycles

 The electronic state is 1-A.
 Alpha  occ. eigenvalues --  -19.30204 -19.24583 -10.43044 -10.30839 -10.29487
 Alpha  occ. eigenvalues --  -10.28655  -1.20446  -1.10766  -0.89689  -0.81478
 Alpha  occ. eigenvalues --   -0.72209  -0.66611  -0.58680  -0.57927  -0.57079
 Alpha  occ. eigenvalues --   -0.52912  -0.50926  -0.48786  -0.46914  -0.44266
 Alpha  occ. eigenvalues --   -0.42986  -0.41731  -0.40802  -0.36369
 Alpha virt. eigenvalues --    0.08833   0.13407   0.14575   0.17951   0.18310
 Alpha virt. eigenvalues --    0.19670   0.22801   0.23937   0.24781   0.28630
 Alpha virt. eigenvalues --    0.29933   0.33399   0.36766   0.41934   0.50765

 Mulliken charges:
               1
     1  C   -0.312602
     2  C   -0.229083
     3  C   -0.269506
     4  C    0.208534
     5  O   -0.370415
     6  O   -0.241054
     7  H    0.114331
     8  H    0.114331
     9  H    0.127002
    10  H    0.121694
    11  H    0.121694
    12  H    0.139581
    13  H    0.139581
    14  H    0.335913
 Sum of Mulliken charges =  -0.00000

 Dipole moment (field-independent basis, Debye):
    X=              0.1444    Y=             -1.4231    Z=             -0.0000  Tot=              1.4304
  Exact polarizability:  55.045  -0.083  47.641   0.000   0.000  37.355
 Approx polarizability:  48.582  -0.294  56.620   0.000   0.000  41.509
   1 Symmetry operations used in ECPInt.
 ECPInt:  NShTT=    1378 NPrTT=    5562 LenC2=    1368 LenP2D=    4480.
 LDataN:  DoStor=T MaxTD1= 6 Len=  172
 Calling FoFJK, ICntrl=    100127 FMM=F ISym2X=0 I1Cent= 0 IOpClX= 0 NMat=1 NMatS=1 NMatT=0.
 Full mass-weighted force constant matrix:
 Low frequencies ---  -20.6790   -6.2940   -3.3466   -0.0007   -0.0005    0.0011
 Low frequencies ---   38.2154  102.9772  183.1242
 Diagonal vibrational polarizability:

                      1                      2                      3
                      A                      A                      A
 Frequencies --     36.7321               102.9684               183.1241
 Red. masses --      2.0926                 2.5049                 3.9224
 Frc consts  --      0.0017                 0.0156                 0.0775
 IR Inten    --      0.0403                 0.1093                 2.1216

                      4                      5                      6
                      A                      A                      A
 Frequencies --    248.6391               352.6004               461.8396
 Red. masses --      1.0799                 3.6006                 4.4736
 Frc consts  --      0.0393                 0.2637                 0.5622
 IR Inten    --      0.1266                 3.3707                12.7083

                      7                      8                      9
                      A                      A                      A
 Frequencies --    533.0110               655.4313               687.4258
 Red. masses --      1.5789                 4.2313                 1.2706
 Frc consts  --      0.2643                 1.0710                 0.3538
 IR Inten    --     21.6340                36.5809                94.2577

                     10                     11                     12
                      A                      A                      A
 Frequencies --    763.9876               890.1474               904.3611
 Red. masses --      1.2342                 2.4170                 1.3856
 Frc consts  --      0.4244                 1.1284                 0.6677
 IR Inten    --     25.2617                14.5974                 2.9310

                     13                     14                     15
                      A                      A                      A
 Frequencies --    955.5888              1079.4957              1137.0855
 Red. masses --      1.9719                 2.1857                 1.6851
 Frc consts  --      1.0609                 1.5006                 1.2837
 IR Inten    --      2.7686                 5.2858                 3.1732

                     16                     17                     18
                      A                      A                      A
 Frequencies --   1142.0442              1212.4869              1261.2720
 Red. masses --      2.2526                 2.2986                 1.3190
 Frc consts  --      1.7310                 1.9910                 1.2362
 IR Inten    --     21.2253               239.9911                 0.0504

                     19                     20                     21
                      A                      A                      A
 Frequencies --   1303.4787              1335.2767              1382.5209
 Red. masses --      1.3503                 1.0847                 1.6795
 Frc consts  --      1.3517                 1.1395                 1.8914
 IR Inten    --     11.4923                 0.0182                21.1334

                     22                     23                     24
                      A                      A                      A
 Frequencies --   1426.6570              1457.1568              1466.1626
 Red. masses --      1.3374                 1.1101                 2.2843
 Frc consts  --      1.6039                 1.3887                 2.8932
 IR Inten    --      5.1113                15.1958                91.3499

                     25                     26                     27
                      A                      A                      A
 Frequencies --   1486.2012              1494.6081              1502.9861
 Red. masses --      1.0604                 1.0374                 1.1362
 Frc consts  --      1.3800                 1.3654                 1.5123
 IR Inten    --      6.8911                10.0860                 9.0621

                     28                     29                     30
                      A                      A                      A
 Frequencies --   1907.0421              3029.0980              3045.1865
 Red. masses --     10.4105                 1.0385                 1.0646
 Frc consts  --     22.3071                 5.6139                 5.8166
 IR Inten    --    295.2787                25.2302                 6.2075

                     31                     32                     33
                      A                      A                      A
 Frequencies --   3064.6145              3091.9110              3108.4807
 Red. masses --      1.0637                 1.1021                 1.1050
 Frc consts  --      5.8861                 6.2079                 6.2906
 IR Inten    --     17.2386                 2.0610                 0.7312

                     34                     35                     36
                      A                      A                      A
 Frequencies --   3127.7174              3131.1619              3701.1965
 Red. masses --      1.1053                 1.1041                 1.0640
 Frc consts  --      6.3705                 6.3779                 8.5875
 IR Inten    --     41.3287                23.2578                75.7151

 Optimization completed.
    -- Stationary point found.
 Normal termination of Gaussian 16 at Mon Feb  6 10:18:51 2023.
