 Gaussian 16, Revision B.01,
 Gaussian 16:  ES64L-G16RevB.01 20-Dec-2017

 ----------------------------------------------------------------------
 #T wB97XD/def2svpp opt=tight freq int(grid=ultrafine) scf=(verytight,q
 c) Volume=tight
 ----------------------------------------------------------------------
 -------
 Monomer
 -------
 Symbolic Z-matrix:
 Charge =  0 Multiplicity = 1

 SCF Done:  E(RwB97XD) =  -288.691101304     a.u. after    7 cycles
 SCF Done:  E(RwB97XD) =  -288.692732108     a.u. after    7 cycles
 SCF Done:  E(RwB97XD) =  -288.692172496     a.u. after    9 cycles
 SCF Done:  E(RwB97XD) =  -288.692945832     a.u. after    5 cycles
 SCF Done:  E(RwB97XD) =  -288.692970263     a.u. after    4 cycles
 SCF Done:  E(RwB97XD) =  -288.692974782     a.u. after    3 cycles
 SCF Done:  E(RwB97XD) =  -288.692975331     a.u. after    2 cycles
 SCF Done:  E(RwB97XD) =  -288.692975420     a.u. after    2 cycles
 SCF Done:  E(RwB97XD) =  -288.692975441     a.u. after    2 cycles
 SCF Done:  E(RwB97XD) =  -288.692975443     a.u. after    2 cycles
 SCF Done:  E(RwB97XD) =  -288.692975443     a.u. after    2 cycles
 SCF Done:  E(RwB97XD) =  -288.692975444     a.u. after    2 cycles
 Optimization completed.
    -- Stationary point found.
 Normal termination of Gaussian 16 at Fri Mar 29 15:38:10 2024.

 ---------------------------------------------------------------------
 #T Geom=AllCheck Guess=TCheck SCRF=Check GenChk RwB97XD/def2SVPP Freq
 ---------------------------------------------------------------------
 Structure from the checkpoint file:  "monomer.chk"
 -------
 Monomer
 -------
 Charge =  0 Multiplicity = 1

                         Standard orientation:
 ---------------------------------------------------------------------
 Center     Atomic      Atomic             Coordinates (Angstroms)
 Number     Number       Type             X           Y           Z
 ---------------------------------------------------------------------
      1          6           0       -1.638580   -0.801641   -0.382104
      2          6           0       -0.393342    0.001821    0.004988
      3          6           0       -0.497350    1.438890   -0.508881
      4          7           0       -0.175800    0.054558    1.457971
      5          6           0        0.874664   -0.668009   -0.564691
      6          8           0        2.025757   -0.033828   -0.100444
      7          1           0       -1.752739   -0.864221   -1.479118
      8          1           0       -2.549799   -0.330665    0.028327
      9          1           0       -1.581215   -1.833602    0.010083
     10          1           0       -1.354321    1.963146   -0.047189
     11          1           0       -0.643555    1.450024   -1.602110
     12          1           0        0.425398    1.994697   -0.278105
     13          1           0       -0.326006   -0.861662    1.883172
     14          1           0       -0.810008    0.712102    1.910403
     15          1           0        0.870412   -0.621794   -1.667725
     16          1           0        0.860152   -1.745548   -0.279979
     17          1           0        1.813873    0.199874    0.824127
 ---------------------------------------------------------------------

 SCF Done:  E(RwB97XD) =  -288.692975444     a.u. after    1 cycles

 The electronic state is 1-A.
 Alpha  occ. eigenvalues --  -19.22532 -14.43102 -10.33373 -10.32454 -10.28895
 Alpha  occ. eigenvalues --  -10.28291  -1.09842  -0.99035  -0.85692  -0.78320
 Alpha  occ. eigenvalues --   -0.75537  -0.65931  -0.59848  -0.56127  -0.55126
 Alpha  occ. eigenvalues --   -0.54388  -0.50155  -0.48418  -0.47315  -0.45758
 Alpha  occ. eigenvalues --   -0.45055  -0.42531  -0.38918  -0.34266  -0.33028
 Alpha virt. eigenvalues --    0.11730   0.16946   0.17269   0.17877   0.19461
 Alpha virt. eigenvalues --    0.20292   0.21528   0.22821   0.23816   0.25798
 Alpha virt. eigenvalues --    0.26692   0.29023   0.30672   0.31117   0.32439

 Mulliken charges:
               1
     1  C   -0.262822
     2  C   -0.206655
     3  C   -0.264504
     4  N   -0.514458
     5  C    0.105866
     6  O   -0.494443
     7  H    0.117450
     8  H    0.112058
     9  H    0.110148
    10  H    0.108322
    11  H    0.117479
    12  H    0.132359
    13  H    0.224994
    14  H    0.227472
    15  H    0.094949
    16  H    0.071537
    17  H    0.320249
 Sum of Mulliken charges =  -0.00000

 Dipole moment (field-independent basis, Debye):
    X=             -2.9604    Y=             -0.3880    Z=              1.0713  Tot=              3.1721
  Exact polarizability:  53.386   0.045  53.698  -0.120   0.482  52.662
 Approx polarizability:  54.527   0.113  55.012  -0.243   0.846  56.800
   1 Symmetry operations used in ECPInt.
 ECPInt:  NShTT=    1711 NPrTT=    6897 LenC2=    1709 LenP2D=    5759.
 LDataN:  DoStor=T MaxTD1= 6 Len=  172
 Calling FoFJK, ICntrl=    100127 FMM=F ISym2X=0 I1Cent= 0 IOpClX= 0 NMat=1 NMatS=1 NMatT=0.
 Full mass-weighted force constant matrix:
 Low frequencies ---   -0.0013   -0.0010   -0.0007    6.1178    9.8746   12.3029
 Low frequencies ---  166.0398  239.1863  257.9098
 Diagonal vibrational polarizability:

                      1                      2                      3
                      A                      A                      A
 Frequencies --    166.0375               239.1847               257.9089
 Red. masses --      2.6485                 1.0681                 1.8150
 Frc consts  --      0.0430                 0.0360                 0.0711
 IR Inten    --      7.4812                 3.2402                 1.7950

                      4                      5                      6
                      A                      A                      A
 Frequencies --    285.8891               311.2181               359.1146
 Red. masses --      1.4075                 1.1572                 1.9064
 Frc consts  --      0.0678                 0.0660                 0.1449
 IR Inten    --      2.6566                 6.7532                 6.4126

                      7                      8                      9
                      A                      A                      A
 Frequencies --    377.6400               428.3033               461.9494
 Red. masses --      2.6415                 2.1254                 2.2385
 Frc consts  --      0.2220                 0.2297                 0.2814
 IR Inten    --      2.1197                 0.8274                 1.2650

                     10                     11                     12
                      A                      A                      A
 Frequencies --    572.0261               657.6897               785.9151
 Red. masses --      2.6914                 1.1781                 3.5869
 Frc consts  --      0.5189                 0.3003                 1.3053
 IR Inten    --     14.0795               139.6770                14.4830

                     13                     14                     15
                      A                      A                      A
 Frequencies --    877.8699               921.1750               956.8301
 Red. masses --      1.4345                 1.6377                 1.4803
 Frc consts  --      0.6513                 0.8188                 0.7985
 IR Inten    --    138.8005                18.6786                 2.5926

                     16                     17                     18
                      A                      A                      A
 Frequencies --    969.0031              1004.1247              1057.7767
 Red. masses --      1.6632                 1.3948                 1.4370
 Frc consts  --      0.9201                 0.8286                 0.9473
 IR Inten    --      2.6948                 0.3685                 1.0578

                     19                     20                     21
                      A                      A                      A
 Frequencies --   1106.6645              1159.8414              1223.0109
 Red. masses --      1.4605                 2.9311                 1.5323
 Frc consts  --      1.0539                 2.3232                 1.3504
 IR Inten    --      1.8857               133.2851                 5.7104

                     22                     23                     24
                      A                      A                      A
 Frequencies --   1252.8220              1308.0346              1366.2580
 Red. masses --      2.2085                 2.3557                 1.7284
 Frc consts  --      2.0423                 2.3747                 1.9009
 IR Inten    --     28.7762                16.8523                14.7852

                     25                     26                     27
                      A                      A                      A
 Frequencies --   1385.0037              1416.6695              1427.1632
 Red. masses --      1.2258                 1.4243                 1.3619
 Frc consts  --      1.3854                 1.6842                 1.6343
 IR Inten    --      7.1751                13.4412                12.0580

                     28                     29                     30
                      A                      A                      A
 Frequencies --   1471.9953              1478.5033              1482.8687
 Red. masses --      1.2412                 1.0533                 1.0777
 Frc consts  --      1.5845                 1.3565                 1.3962
 IR Inten    --     74.7928                 2.2622                10.9875

                     31                     32                     33
                      A                      A                      A
 Frequencies --   1496.9891              1507.1738              1520.1748
 Red. masses --      1.0726                 1.1001                 1.0919
 Frc consts  --      1.4162                 1.4724                 1.4867
 IR Inten    --     10.5987                22.0255                 3.0772

                     34                     35                     36
                      A                      A                      A
 Frequencies --   1661.9389              2950.5247              3020.8850
 Red. masses --      1.1037                 1.0731                 1.0375
 Frc consts  --      1.7961                 5.5043                 5.5783
 IR Inten    --     38.4921                89.5027                21.8623

                     37                     38                     39
                      A                      A                      A
 Frequencies --   3033.5633              3091.2291              3112.7515
 Red. masses --      1.0398                 1.0943                 1.1045
 Frc consts  --      5.6380                 6.1608                 6.3055
 IR Inten    --     18.4588                27.8157                26.5535

                     40                     41                     42
                      A                      A                      A
 Frequencies --   3118.5221              3123.6214              3153.3559
 Red. masses --      1.1045                 1.1026                 1.1044
 Frc consts  --      6.3287                 6.3385                 6.4706
 IR Inten    --      3.4573                39.2416                 9.0992

                     43                     44                     45
                      A                      A                      A
 Frequencies --   3491.2200              3579.5393              3608.1264
 Red. masses --      1.0514                 1.0935                 1.0639
 Frc consts  --      7.5502                 8.2550                 8.1605
 IR Inten    --      0.7285                 3.0210                93.0043

 Optimization completed.
    -- Stationary point found.
 Normal termination of Gaussian 16 at Fri Mar 29 15:39:14 2024.
