 Gaussian 16, Revision B.01,
 Gaussian 16:  ES64L-G16RevB.01 20-Dec-2017

 --------------------------------------------------------------
 #T wB97XD//def2svpp Volume=tight Geom=AllCheckpoint Guess=Read
 --------------------------------------------------------------
 Structure from the checkpoint file:  "monomer.chk"
 -------
 Monomer
 -------
 Charge =  0 Multiplicity = 1

                         Standard orientation:
 ---------------------------------------------------------------------
 Center     Atomic      Atomic             Coordinates (Angstroms)
 Number     Number       Type             X           Y           Z
 ---------------------------------------------------------------------
      1          6           0        0.478393   -1.253877   -0.890201
      2          6           0        0.419667   -0.000002   -0.008438
      3          6           0        1.609273    0.000252    0.959652
      4          6           0        0.478364    1.253436   -0.890825
      5          6           0       -0.883476    0.000194    0.834293
      6          7           0       -2.154151    0.000029    0.138124
      7          1           0        1.417489   -1.286632   -1.471058
      8          1           0       -0.355815   -1.279342   -1.614116
      9          1           0        0.427638   -2.173576   -0.278920
     10          1           0        1.593133   -0.892255    1.611296
     11          1           0        1.593114    0.893082    1.610853
     12          1           0        2.568920    0.000126    0.412185
     13          1           0       -0.355847    1.278523   -1.614748
     14          1           0        1.417457    1.285922   -1.471700
     15          1           0        0.427592    2.173438   -0.280000
     16          1           0       -0.865077    0.883722    1.499957
     17          1           0       -0.865073   -0.883019    1.500375
     18          1           0       -2.268896   -0.824414   -0.448754
     19          1           0       -2.268908    0.824208   -0.449121
 ---------------------------------------------------------------------

 SCF Done:  E(RwB97XD) =  -252.828839595     A.U. after    1 cycles

 The electronic state is 1-A.
 Alpha  occ. eigenvalues --  -14.41089 -10.30721 -10.30222 -10.28166 -10.28165
 Alpha  occ. eigenvalues --  -10.27979  -0.97246  -0.89736  -0.77462  -0.77444
 Alpha  occ. eigenvalues --   -0.74154  -0.62273  -0.58293  -0.55099  -0.53214
 Alpha  occ. eigenvalues --   -0.52810  -0.49497  -0.47051  -0.45888  -0.44689
 Alpha  occ. eigenvalues --   -0.43693  -0.42266  -0.40583  -0.40166  -0.30722
 Alpha virt. eigenvalues --    0.12200   0.15601   0.17034   0.18130   0.19025
 Alpha virt. eigenvalues --    0.19374   0.20762   0.22161   0.23860   0.25140
 Alpha virt. eigenvalues --    0.25508   0.27087   0.28090   0.28482   0.30294

 Mulliken charges:
               1
     1  C   -0.283668
     2  C   -0.252011
     3  C   -0.269562
     4  C   -0.283669
     5  C   -0.046360
     6  N   -0.507248
     7  H    0.116204
     8  H    0.102323
     9  H    0.112890
    10  H    0.113168
    11  H    0.113168
    12  H    0.113823
    13  H    0.102323
    14  H    0.116204
    15  H    0.112890
    16  H    0.097682
    17  H    0.097683
    18  H    0.222078
    19  H    0.222079
 Sum of Mulliken charges =  -0.00000

 Dipole moment (field-independent basis, Debye):
    X=              0.7906    Y=             -0.0002    Z=             -1.0137  Tot=              1.2856
 Evaluate density.
 Using the total density.
 Monte-Carlo method of calculating molar volume:
 based on  0.001 e/bohr**3 density envelope.
 Number of points per bohr**3 =  100 CutOff= 1.00D-04
 Using the SCF density.
 There are      1776 points.  Will hold      1776 in memory.
 LenV=  1048349989 MDV=  1048576000.
 Box volume = 5608.107 fraction occupied=0.178
 Integrated density= 4.3537814269776391D+01 error=-6.4621857302236094D+00

 Normal termination of Gaussian 16 at Tue Apr  2 13:47:33 2024.
