 Gaussian 16, Revision B.01,
 Gaussian 16:  ES64L-G16RevB.01 20-Dec-2017

 ----------------------------------------------------------------------
 #T wB97XD/def2svpp opt=tight freq int(grid=ultrafine) scf=(verytight,q
 c)
 ----------------------------------------------------------------------
 -----
 dimer
 -----
 Symbolic Z-matrix:
 Charge =  0 Multiplicity = 1

 SCF Done:  E(RwB97XD) =  -875.404823805     a.u. after    8 cycles
 SCF Done:  E(RwB97XD) =  -875.408937001     a.u. after    9 cycles
 SCF Done:  E(RwB97XD) =  -875.409194886     a.u. after   11 cycles
 SCF Done:  E(RwB97XD) =  -875.409982193     a.u. after    9 cycles
 SCF Done:  E(RwB97XD) =  -875.410256431     a.u. after    5 cycles
 SCF Done:  E(RwB97XD) =  -875.410405420     a.u. after    5 cycles
 SCF Done:  E(RwB97XD) =  -875.410491528     a.u. after    4 cycles
 SCF Done:  E(RwB97XD) =  -875.410574793     a.u. after    4 cycles
 SCF Done:  E(RwB97XD) =  -875.410787006     a.u. after    6 cycles
 SCF Done:  E(RwB97XD) =  -875.410897239     a.u. after    5 cycles
 SCF Done:  E(RwB97XD) =  -875.411032370     a.u. after    2 cycles
 SCF Done:  E(RwB97XD) =  -875.411032594     a.u. after    2 cycles
 SCF Done:  E(RwB97XD) =  -875.411032758     a.u. after    2 cycles
 SCF Done:  E(RwB97XD) =  -875.411032824     a.u. after    2 cycles
 SCF Done:  E(RwB97XD) =  -875.411032880     a.u. after    2 cycles
 SCF Done:  E(RwB97XD) =  -875.411032913     a.u. after    2 cycles
 SCF Done:  E(RwB97XD) =  -875.411032923     a.u. after    2 cycles
 SCF Done:  E(RwB97XD) =  -875.411032929     a.u. after    2 cycles
 SCF Done:  E(RwB97XD) =  -875.411032930     a.u. after    2 cycles
 Optimization completed.
    -- Stationary point found.
 Normal termination of Gaussian 16 at Tue Aug  9 17:40:32 2022.

 ---------------------------------------------------------------------
 #T Geom=AllCheck Guess=TCheck SCRF=Check GenChk RwB97XD/def2SVPP Freq
 ---------------------------------------------------------------------
 Structure from the checkpoint file:  "/scratch/user/peterchao1/peterchao1/6113322_1660079103000000687098386/Gau-36368.chk"
 -----
 dimer
 -----
 Charge =  0 Multiplicity = 1

                         Standard orientation:
 ---------------------------------------------------------------------
 Center     Atomic      Atomic             Coordinates (Angstroms)
 Number     Number       Type             X           Y           Z
 ---------------------------------------------------------------------
      1          6           0       -3.499912   -0.943214    1.149352
      2          6           0       -2.772536   -0.106317    0.097454
      3          6           0       -3.583723    0.073961   -1.173486
      4          6           0       -2.344870    1.256813    0.699054
      5          8           0       -1.814941    2.141195   -0.226818
      6          7           0       -1.484091   -0.856103   -0.239121
      7          8           0       -0.758909   -1.129035    0.705806
      8          8           0       -1.230499   -1.129945   -1.382844
      9          1           0       -2.904936   -1.032361    2.071387
     10          1           0       -3.716363   -1.955415    0.767945
     11          1           0       -4.459395   -0.457296    1.390262
     12          1           0       -3.029554    0.674859   -1.907664
     13          1           0       -4.511193    0.612825   -0.917718
     14          1           0       -3.851742   -0.895177   -1.623406
     15          1           0       -1.656147    1.064437    1.544148
     16          1           0       -3.265085    1.709727    1.108082
     17          1           0       -0.874876    1.925185   -0.375359
     18          6           0        3.583723   -0.073947    1.173485
     19          6           0        2.772538    0.106321   -0.097457
     20          6           0        3.499910    0.943216   -1.149359
     21          6           0        2.344877   -1.256814   -0.699048
     22          8           0        1.814947   -2.141188    0.226832
     23          7           0        1.484088    0.856098    0.239118
     24          8           0        0.758904    1.129024   -0.705809
     25          8           0        1.230495    1.129936    1.382842
     26          1           0        3.029556   -0.674847    1.907663
     27          1           0        3.851732    0.895195    1.623403
     28          1           0        4.511198   -0.612803    0.917721
     29          1           0        4.459395    0.457300   -1.390267
     30          1           0        3.716359    1.955419   -0.767956
     31          1           0        2.904934    1.032358   -2.071393
     32          1           0        3.265094   -1.709730   -1.108070
     33          1           0        1.656155   -1.064447   -1.544145
     34          1           0        0.874873   -1.925199    0.375345
 ---------------------------------------------------------------------

 SCF Done:  E(RwB97XD) =  -875.411032930     a.u. after    1 cycles

 The electronic state is 1-A.
 Alpha  occ. eigenvalues --  -19.31119 -19.31118 -19.30710 -19.30706 -19.24192
 Alpha  occ. eigenvalues --  -19.24191 -14.69204 -14.69203 -10.36976 -10.36976
 Alpha  occ. eigenvalues --  -10.35008 -10.35008 -10.31086 -10.31086 -10.29654
 Alpha  occ. eigenvalues --  -10.29654  -1.35468  -1.35213  -1.17381  -1.17355
 Alpha  occ. eigenvalues --   -1.11476  -1.11364  -0.95670  -0.95441  -0.80457
 Alpha  occ. eigenvalues --   -0.80378  -0.79962  -0.79825  -0.78001  -0.77769
 Alpha  occ. eigenvalues --   -0.68342  -0.67149  -0.66113  -0.65189  -0.63085
 Alpha  occ. eigenvalues --   -0.62648  -0.61525  -0.61306  -0.59607  -0.59591
 Alpha  occ. eigenvalues --   -0.55336  -0.55069  -0.53190  -0.52946  -0.51220
 Alpha  occ. eigenvalues --   -0.50942  -0.50118  -0.50074  -0.49065  -0.48945
 Alpha  occ. eigenvalues --   -0.46105  -0.45988  -0.45454  -0.45239  -0.42843
 Alpha  occ. eigenvalues --   -0.42275  -0.41939  -0.41476  -0.40421  -0.39876
 Alpha  occ. eigenvalues --   -0.39294  -0.38926  -0.35694  -0.35425
 Alpha virt. eigenvalues --   -0.00602  -0.00569   0.12952   0.13157   0.14882
 Alpha virt. eigenvalues --    0.15383   0.17677   0.18008   0.18980   0.19036
 Alpha virt. eigenvalues --    0.20097   0.20240   0.21670   0.22174   0.22709

 Mulliken charges:
               1
     1  C   -0.270779
     2  C   -0.226882
     3  C   -0.237131
     4  C    0.055615
     5  O   -0.489635
     6  N    0.253749
     7  O   -0.285479
     8  O   -0.207155
     9  H    0.154988
    10  H    0.137601
    11  H    0.138304
    12  H    0.152524
    13  H    0.125925
    14  H    0.130203
    15  H    0.131426
    16  H    0.110318
    17  H    0.326408
    18  C   -0.237132
    19  C   -0.226880
    20  C   -0.270778
    21  C    0.055613
    22  O   -0.489635
    23  N    0.253749
    24  O   -0.285480
    25  O   -0.207153
    26  H    0.152525
    27  H    0.130203
    28  H    0.125925
    29  H    0.138304
    30  H    0.137601
    31  H    0.154987
    32  H    0.110318
    33  H    0.131426
    34  H    0.326409
 Sum of Mulliken charges =   0.00000

 Dipole moment (field-independent basis, Debye):
    X=             -0.0000    Y=             -0.0000    Z=             -0.0000  Tot=              0.0000
  Exact polarizability: 135.213  -5.559 102.643  -0.003   0.846 116.216
 Approx polarizability: 128.850  -7.577 113.991   4.437   0.591 157.474
   1 Symmetry operations used in ECPInt.
 ECPInt:  NShTT=    8778 NPrTT=   35242 LenC2=    8431 LenP2D=   23578.
 LDataN:  DoStor=T MaxTD1= 6 Len=  172
 Calling FoFJK, ICntrl=    100127 FMM=F ISym2X=0 I1Cent= 0 IOpClX= 0 NMat=1 NMatS=1 NMatT=0.
 Full mass-weighted force constant matrix:
 Low frequencies ---   -6.1667   -5.6361   -0.0012   -0.0008    0.0007    5.5959
 Low frequencies ---   19.7508   42.6835   49.3550
 Diagonal vibrational polarizability:

                      1                      2                      3
                      A                      A                      A
 Frequencies --     19.7508                42.6835                49.2510
 Red. masses --      3.7954                 5.4102                 6.3390
 Frc consts  --      0.0009                 0.0058                 0.0091
 IR Inten    --      3.9421                 0.6434                 0.0000

                      4                      5                      6
                      A                      A                      A
 Frequencies --     61.6304                75.6281                82.3190
 Red. masses --      7.0262                 5.8637                 9.0126
 Frc consts  --      0.0157                 0.0198                 0.0360
 IR Inten    --      0.0000                 4.7234                 3.3529

                      7                      8                      9
                      A                      A                      A
 Frequencies --     91.0313                99.4051               183.3428
 Red. masses --      8.0716                 5.5579                 5.0701
 Frc consts  --      0.0394                 0.0324                 0.1004
 IR Inten    --      0.0000                 0.0000                 0.0000

                     10                     11                     12
                      A                      A                      A
 Frequencies --    186.4310               226.2274               230.9122
 Red. masses --      2.8726                 1.0920                 1.2477
 Frc consts  --      0.0588                 0.0329                 0.0392
 IR Inten    --      2.5680                 0.0000                 0.9749

                     13                     14                     15
                      A                      A                      A
 Frequencies --    236.8399               238.1047               276.0501
 Red. masses --      2.8419                 2.6421                 1.1934
 Frc consts  --      0.0939                 0.0883                 0.0536
 IR Inten    --      0.0000                 1.9434                 2.5625

                     16                     17                     18
                      A                      A                      A
 Frequencies --    276.0972               303.7251               304.2710
 Red. masses --      1.1832                 2.2333                 2.3717
 Frc consts  --      0.0531                 0.1214                 0.1294
 IR Inten    --      0.0025                 1.2418                 0.0000

                     19                     20                     21
                      A                      A                      A
 Frequencies --    332.1136               334.6742               364.3996
 Red. masses --      3.1843                 3.5477                 2.8248
 Frc consts  --      0.2069                 0.2341                 0.2210
 IR Inten    --      0.0000                 5.0501                 1.2977

                     22                     23                     24
                      A                      A                      A
 Frequencies --    366.1863               397.1632               399.3252
 Red. masses --      2.9348                 2.7317                 2.9259
 Frc consts  --      0.2319                 0.2539                 0.2749
 IR Inten    --      0.0000                 0.0000                23.0168

                     25                     26                     27
                      A                      A                      A
 Frequencies --    518.8449               523.6493               548.8229
 Red. masses --      4.3214                 4.6011                 5.2076
 Frc consts  --      0.6854                 0.7433                 0.9242
 IR Inten    --     12.8751                 0.0000                 0.0000

                     28                     29                     30
                      A                      A                      A
 Frequencies --    549.8350               585.0363               596.2545
 Red. masses --      5.1884                 2.5900                 3.4727
 Frc consts  --      0.9242                 0.5223                 0.7274
 IR Inten    --     13.7352                43.2268                 0.0000

                     31                     32                     33
                      A                      A                      A
 Frequencies --    637.0209               649.7332               779.4205
 Red. masses --      1.0626                 1.1821                 6.1458
 Frc consts  --      0.2541                 0.2940                 2.1997
 IR Inten    --      0.0000               138.5176                 4.4489

                     34                     35                     36
                      A                      A                      A
 Frequencies --    783.5985               840.3394               841.0011
 Red. masses --      6.1053                 3.0123                 2.9927
 Frc consts  --      2.2088                 1.2533                 1.2471
 IR Inten    --      0.0000                11.5486                 0.0000

                     37                     38                     39
                      A                      A                      A
 Frequencies --    916.9056               920.1764               925.1630
 Red. masses --      3.4426                 6.5109                 1.7728
 Frc consts  --      1.7052                 3.2481                 0.8940
 IR Inten    --      0.0000                66.8059                11.1847

                     40                     41                     42
                      A                      A                      A
 Frequencies --    929.4115               969.5230               969.6208
 Red. masses --      2.3711                 1.3630                 1.3635
 Frc consts  --      1.2067                 0.7549                 0.7553
 IR Inten    --      0.0000                 0.0000                 4.7937

                     43                     44                     45
                      A                      A                      A
 Frequencies --   1020.7913              1021.3450              1049.3794
 Red. masses --      1.4202                 1.4275                 1.4314
 Frc consts  --      0.8719                 0.8774                 0.9287
 IR Inten    --      0.0000                 2.3953                 0.0000

                     46                     47                     48
                      A                      A                      A
 Frequencies --   1049.5026              1185.8467              1188.0886
 Red. masses --      1.4398                 5.7157                 2.4471
 Frc consts  --      0.9343                 4.7356                 2.0352
 IR Inten    --     16.3311                 0.0000                77.2817

                     49                     50                     51
                      A                      A                      A
 Frequencies --   1190.4454              1191.5678              1249.9552
 Red. masses --      2.7929                 1.7096                 2.6266
 Frc consts  --      2.3320                 1.4302                 2.4178
 IR Inten    --    169.0663                 0.0000                 0.0000

                     52                     53                     54
                      A                      A                      A
 Frequencies --   1250.0868              1271.3848              1272.0307
 Red. masses --      2.6428                 1.9084                 1.8765
 Frc consts  --      2.4333                 1.8175                 1.7890
 IR Inten    --      4.6053                29.4830                 0.0000

                     55                     56                     57
                      A                      A                      A
 Frequencies --   1323.1947              1325.9351              1407.9491
 Red. masses --      1.6387                 1.6131                 1.2744
 Frc consts  --      1.6904                 1.6709                 1.4885
 IR Inten    --      0.0000                20.2640                 0.0000

                     58                     59                     60
                      A                      A                      A
 Frequencies --   1410.1838              1414.3897              1414.4723
 Red. masses --      1.2790                 1.3061                 1.3114
 Frc consts  --      1.4986                 1.5394                 1.5459
 IR Inten    --     53.1779                 2.3899                 0.0000

                     61                     62                     63
                      A                      A                      A
 Frequencies --   1438.0733              1440.3384              1468.2408
 Red. masses --      1.4174                 1.3855                 1.1729
 Frc consts  --      1.7271                 1.6935                 1.4897
 IR Inten    --      0.0000                22.4751                85.4597

                     64                     65                     66
                      A                      A                      A
 Frequencies --   1469.3760              1474.2993              1474.5575
 Red. masses --      1.1500                 1.0560                 1.0573
 Frc consts  --      1.4629                 1.3523                 1.3545
 IR Inten    --      0.0000                 3.5857                 0.0000

                     67                     68                     69
                      A                      A                      A
 Frequencies --   1480.0416              1480.7169              1492.6497
 Red. masses --      1.0845                 1.0803                 1.1692
 Frc consts  --      1.3997                 1.3956                 1.5348
 IR Inten    --      0.0000                 2.8233                27.3881

                     70                     71                     72
                      A                      A                      A
 Frequencies --   1493.7697              1495.7252              1497.2617
 Red. masses --      1.0909                 1.0774                 1.0712
 Frc consts  --      1.4342                 1.4202                 1.4149
 IR Inten    --      0.0000                 8.9577                 0.0000

                     73                     74                     75
                      A                      A                      A
 Frequencies --   1501.7038              1504.5722              1520.9978
 Red. masses --      1.4611                 1.4210                 2.5456
 Frc consts  --      1.9413                 1.8953                 3.4697
 IR Inten    --     78.3430                 0.0000                 0.0001

                     76                     77                     78
                      A                      A                      A
 Frequencies --   1521.1998              1734.0869              1756.1593
 Red. masses --      2.1447                13.6480                13.3045
 Frc consts  --      2.9241                24.1802                24.1755
 IR Inten    --    214.8128                 0.0000               437.1827

                     79                     80                     81
                      A                      A                      A
 Frequencies --   3037.1524              3037.2457              3051.2564
 Red. masses --      1.0613                 1.0613                 1.0377
 Frc consts  --      5.7680                 5.7686                 5.6923
 IR Inten    --      0.0031                48.1254                19.9703

                     82                     83                     84
                      A                      A                      A
 Frequencies --   3051.2855              3061.1081              3061.1677
 Red. masses --      1.0377                 1.0391                 1.0391
 Frc consts  --      5.6925                 5.7369                 5.7372
 IR Inten    --      0.0003                23.7924                 0.0004

                     85                     86                     87
                      A                      A                      A
 Frequencies --   3106.7124              3106.9715              3145.8337
 Red. masses --      1.1085                 1.1083                 1.1054
 Frc consts  --      6.3033                 6.3037                 6.4453
 IR Inten    --     47.4444                 0.0005                 0.0009

                     88                     89                     90
                      A                      A                      A
 Frequencies --   3145.8417              3152.5063              3152.5595
 Red. masses --      1.1054                 1.1048                 1.1048
 Frc consts  --      6.4453                 6.4692                 6.4692
 IR Inten    --      6.4739                 0.0004                24.8607

                     91                     92                     93
                      A                      A                      A
 Frequencies --   3165.7848              3165.8048              3187.8818
 Red. masses --      1.1059                 1.1058                 1.1044
 Frc consts  --      6.5300                 6.5300                 6.6128
 IR Inten    --      8.2637                 0.0024                 2.7517

                     94                     95                     96
                      A                      A                      A
 Frequencies --   3187.8994              3611.1581              3621.6056
 Red. masses --      1.1044                 1.0664                 1.0662
 Frc consts  --      6.6128                 8.1932                 8.2390
 IR Inten    --      0.0018                 0.0001              1272.6819

 Optimization completed.
    -- Stationary point found.
 Normal termination of Gaussian 16 at Tue Aug  9 17:51:11 2022.
