 Gaussian 16, Revision B.01,
 Gaussian 16:  ES64L-G16RevB.01 20-Dec-2017

 ----------------------------------------------------------------------
 #T wB97XD/def2svpp opt=tight freq int(grid=ultrafine) scf=(verytight,q
 c) Volume=tight
 ----------------------------------------------------------------------
 -------
 Monomer
 -------
 Symbolic Z-matrix:
 Charge =  0 Multiplicity = 1

 SCF Done:  E(RwB97XD) =  -385.916056423     a.u. after    8 cycles
 Optimization completed.
    -- Stationary point found.

 1\1\GINC-C169\FOpt\RwB97XD\def2SVPP\C6H12O2\PETERCHAO1\06-Feb-2023\0\\
 #T wB97XD/def2svpp opt=tight freq int(grid=ultrafine) scf=(verytight,q
 c) Volume=tight\\Monomer\\0,1\C,1.869996,-1.365125,0.123864\C,1.343259
 ,-0.182141,-0.684695\C,0.158328,0.584679,-0.050078\C,0.546739,1.213985
 ,1.290677\C,-0.307755,1.681874,-1.025198\C,-1.000924,-0.379534,0.17708
 1\O,-1.382478,-1.000546,-0.954022\O,-1.547529,-0.592869,1.226913\H,1.0
 81284,-2.117403,0.303052\H,2.267724,-1.053682,1.104138\H,2.686926,-1.8
 67784,-0.420933\H,1.034826,-0.534789,-1.683738\H,2.158108,0.547406,-0.

 Normal termination of Gaussian 16 at Mon Feb  6 10:23:13 2023.

 ---------------------------------------------------------------------
 #T Geom=AllCheck Guess=TCheck SCRF=Check GenChk RwB97XD/def2SVPP Freq
 ---------------------------------------------------------------------
 Structure from the checkpoint file:  "14.chk"
 -------
 Monomer
 -------
 Charge =  0 Multiplicity = 1

                         Standard orientation:
 ---------------------------------------------------------------------
 Center     Atomic      Atomic             Coordinates (Angstroms)
 Number     Number       Type             X           Y           Z
 ---------------------------------------------------------------------
      1          6           0        1.869996   -1.365125    0.123864
      2          6           0        1.343259   -0.182141   -0.684695
      3          6           0        0.158328    0.584679   -0.050078
      4          6           0        0.546739    1.213985    1.290677
      5          6           0       -0.307755    1.681874   -1.025198
      6          6           0       -1.000924   -0.379534    0.177081
      7          8           0       -1.382478   -1.000546   -0.954022
      8          8           0       -1.547529   -0.592869    1.226913
      9          1           0        1.081284   -2.117403    0.303052
     10          1           0        2.267724   -1.053682    1.104138
     11          1           0        2.686926   -1.867784   -0.420933
     12          1           0        1.034826   -0.534789   -1.683738
     13          1           0        2.158108    0.547406   -0.847206
     14          1           0       -0.285597    1.809247    1.700493
     15          1           0        1.416986    1.879522    1.153286
     16          1           0        0.801202    0.452396    2.044225
     17          1           0        0.508947    2.407552   -1.184380
     18          1           0       -1.175467    2.231686   -0.620650
     19          1           0       -0.590315    1.257845   -2.002462
     20          1           0       -2.122432   -1.587108   -0.718854
 ---------------------------------------------------------------------

 SCF Done:  E(RwB97XD) =  -385.916056423     a.u. after    1 cycles

 The electronic state is 1-A.
 Alpha  occ. eigenvalues --  -19.30262 -19.24473 -10.42636 -10.32200 -10.29695
 Alpha  occ. eigenvalues --  -10.29070 -10.28516 -10.28186  -1.20418  -1.10584
 Alpha  occ. eigenvalues --   -0.92701  -0.83409  -0.77966  -0.75381  -0.71283
 Alpha  occ. eigenvalues --   -0.64984  -0.58053  -0.56863  -0.56204  -0.53324
 Alpha  occ. eigenvalues --   -0.51980  -0.50822  -0.49238  -0.47423  -0.46793
 Alpha  occ. eigenvalues --   -0.44951  -0.44384  -0.43222  -0.41082  -0.40892
 Alpha  occ. eigenvalues --   -0.40444  -0.35602
 Alpha virt. eigenvalues --    0.08783   0.12686   0.14619   0.16842   0.18091
 Alpha virt. eigenvalues --    0.18666   0.20453   0.21330   0.21914   0.23080
 Alpha virt. eigenvalues --    0.24518   0.25787   0.26370   0.28076   0.29841

 Mulliken charges:
               1
     1  C   -0.324355
     2  C   -0.184171
     3  C   -0.308079
     4  C   -0.256080
     5  C   -0.265382
     6  C    0.241090
     7  O   -0.376569
     8  O   -0.224615
     9  H    0.129362
    10  H    0.124655
    11  H    0.124702
    12  H    0.121122
    13  H    0.106334
    14  H    0.125931
    15  H    0.112828
    16  H    0.134596
    17  H    0.122837
    18  H    0.124783
    19  H    0.134812
    20  H    0.336200
 Sum of Mulliken charges =  -0.00000

 Dipole moment (field-independent basis, Debye):
    X=              0.6002    Y=              0.0290    Z=             -1.4799  Tot=              1.5972
  Exact polarizability:  67.310   0.913  66.954  -0.868   0.313  67.042
 Approx polarizability:  69.674   3.158  67.752  -3.400   0.464  77.037
   1 Symmetry operations used in ECPInt.
 ECPInt:  NShTT=    2628 NPrTT=   10580 LenC2=    2617 LenP2D=    8468.
 LDataN:  DoStor=T MaxTD1= 6 Len=  172
 Calling FoFJK, ICntrl=    100127 FMM=F ISym2X=0 I1Cent= 0 IOpClX= 0 NMat=1 NMatS=1 NMatT=0.
 Full mass-weighted force constant matrix:
 Low frequencies ---   -1.8511   -0.0007   -0.0007    0.0006    4.4391    8.1777
 Low frequencies ---   42.0667   86.8828  185.8883
 Diagonal vibrational polarizability:

                      1                      2                      3
                      A                      A                      A
 Frequencies --     42.0643                86.8651               185.8877
 Red. masses --      8.2969                 2.0291                 1.8895
 Frc consts  --      0.0086                 0.0090                 0.0385
 IR Inten    --      0.6512                 0.0038                 0.0067

                      4                      5                      6
                      A                      A                      A
 Frequencies --    225.9050               249.9777               258.7150
 Red. masses --      1.0946                 1.8337                 1.4141
 Frc consts  --      0.0329                 0.0675                 0.0558
 IR Inten    --      0.0772                 0.1196                 0.1714

                      7                      8                      9
                      A                      A                      A
 Frequencies --    284.8851               303.4169               369.0029
 Red. masses --      1.7162                 1.8762                 2.6533
 Frc consts  --      0.0821                 0.1018                 0.2129
 IR Inten    --      0.5368                 0.8275                 3.6217

                     10                     11                     12
                      A                      A                      A
 Frequencies --    374.7357               457.0925               521.0707
 Red. masses --      2.3678                 2.6324                 4.1028
 Frc consts  --      0.1959                 0.3240                 0.6563
 IR Inten    --      0.7300                 1.6005                 8.0969

                     13                     14                     15
                      A                      A                      A
 Frequencies --    580.3728               633.3706               737.8097
 Red. masses --      3.3290                 1.2058                 3.2799
 Frc consts  --      0.6607                 0.2850                 1.0520
 IR Inten    --     19.3666                88.0747                24.2286

                     16                     17                     18
                      A                      A                      A
 Frequencies --    786.1929               816.2951               878.9168
 Red. masses --      1.5180                 2.6908                 1.8140
 Frc consts  --      0.5528                 1.0564                 0.8256
 IR Inten    --     19.5274                25.8542                 3.4399

                     19                     20                     21
                      A                      A                      A
 Frequencies --    961.1376               972.6460              1024.0611
 Red. masses --      1.8393                 1.4565                 1.2831
 Frc consts  --      1.0011                 0.8118                 0.7928
 IR Inten    --      4.3294                 0.7473                 0.9543

                     22                     23                     24
                      A                      A                      A
 Frequencies --   1037.5381              1086.6120              1102.5352
 Red. masses --      1.4969                 1.6414                 1.9749
 Frc consts  --      0.9494                 1.1419                 1.4144
 IR Inten    --      8.5501                 6.1774                 1.9366

                     25                     26                     27
                      A                      A                      A
 Frequencies --   1196.6122              1225.2995              1257.4855
 Red. masses --      2.8700                 2.6115                 1.8590
 Frc consts  --      2.4213                 2.3100                 1.7320
 IR Inten    --    208.7738                10.0370                18.6679

                     28                     29                     30
                      A                      A                      A
 Frequencies --   1276.4081              1332.9869              1378.8271
 Red. masses --      2.3344                 1.3775                 1.4446
 Frc consts  --      2.2408                 1.4421                 1.6181
 IR Inten    --     16.3682                 2.6215                 4.1507

                     31                     32                     33
                      A                      A                      A
 Frequencies --   1399.5682              1420.2578              1428.9664
 Red. masses --      1.5539                 1.7681                 1.2446
 Frc consts  --      1.7933                 2.1013                 1.4973
 IR Inten    --     21.1613                 9.2731                 5.5051

                     34                     35                     36
                      A                      A                      A
 Frequencies --   1435.4773              1473.4552              1480.2252
 Red. masses --      1.3748                 1.0694                 1.0491
 Frc consts  --      1.6691                 1.3679                 1.3543
 IR Inten    --     21.5384                 1.1415                 0.5780

                     37                     38                     39
                      A                      A                      A
 Frequencies --   1488.2071              1494.5171              1494.9955
 Red. masses --      1.0631                 1.0618                 1.0527
 Frc consts  --      1.3872                 1.3973                 1.3862
 IR Inten    --      4.8990                 0.8891                13.9854

                     40                     41                     42
                      A                      A                      A
 Frequencies --   1501.7215              1513.8734              1895.5638
 Red. masses --      1.0508                 1.0993                10.5358
 Frc consts  --      1.3962                 1.4844                22.3046
 IR Inten    --     21.2453                17.4525               283.6329

                     43                     44                     45
                      A                      A                      A
 Frequencies --   3034.8085              3037.4038              3043.3286
 Red. masses --      1.0375                 1.0385                 1.0499
 Frc consts  --      5.6297                 5.6451                 5.7291
 IR Inten    --     17.9976                17.9877                16.8567

                     46                     47                     48
                      A                      A                      A
 Frequencies --   3046.7274              3103.0771              3124.7448
 Red. masses --      1.0541                 1.1026                 1.1052
 Frc consts  --      5.7652                 6.2553                 6.3581
 IR Inten    --     24.3884                 5.4058                 8.6059

                     49                     50                     51
                      A                      A                      A
 Frequencies --   3127.1631              3135.5275              3138.0373
 Red. masses --      1.1042                 1.1044                 1.1047
 Frc consts  --      6.3621                 6.3973                 6.4091
 IR Inten    --     27.0549                20.5904                21.9274

                     52                     53                     54
                      A                      A                      A
 Frequencies --   3145.5425              3154.6760              3701.5544
 Red. masses --      1.1048                 1.1036                 1.0641
 Frc consts  --      6.4407                 6.4708                 8.5901
 IR Inten    --     15.4385                12.0285                84.3452

 Optimization completed.
    -- Stationary point found.

 1\1\GINC-C169\Freq\RwB97XD\def2SVPP\C6H12O2\PETERCHAO1\06-Feb-2023\0\\
 #T Geom=AllCheck Guess=TCheck SCRF=Check GenChk RwB97XD/def2SVPP Freq\
 \Monomer\\0,1\C,1.869996,-1.365125,0.123864\C,1.343259,-0.182141,-0.68
 4695\C,0.158328,0.584679,-0.050078\C,0.546739,1.213985,1.290677\C,-0.3
 07755,1.681874,-1.025198\C,-1.000924,-0.379534,0.177081\O,-1.382478,-1
 .000546,-0.954022\O,-1.547529,-0.592869,1.226913\H,1.081284,-2.117403,
 0.303052\H,2.267724,-1.053682,1.104138\H,2.686926,-1.867784,-0.420933\
 H,1.034826,-0.534789,-1.683738\H,2.158108,0.547406,-0.847206\H,-0.2855

 Normal termination of Gaussian 16 at Mon Feb  6 10:25:13 2023.
