 Gaussian 16, Revision B.01,
 Gaussian 16:  ES64L-G16RevB.01 20-Dec-2017

 --------------------------------------------------------------
 #T wB97XD//def2svpp Volume=tight Geom=AllCheckpoint Guess=Read
 --------------------------------------------------------------
 Structure from the checkpoint file:  "monomer.chk"
 -------
 Monomer
 -------
 Charge =  0 Multiplicity = 1

                         Standard orientation:
 ---------------------------------------------------------------------
 Center     Atomic      Atomic             Coordinates (Angstroms)
 Number     Number       Type             X           Y           Z
 ---------------------------------------------------------------------
      1          6           0        2.274972   -0.838995   -0.026311
      2          6           0        0.838312   -0.782275   -0.541542
      3          6           0       -0.043656    0.362631    0.000989
      4          6           0       -0.060116    0.367249    1.536838
      5          6           0        0.439044    1.725638   -0.510409
      6          6           0       -1.480794    0.152303   -0.520702
      7          8           0       -2.081409   -1.048714   -0.108466
      8          1           0        2.828655    0.094105   -0.230422
      9          1           0        2.824475   -1.660371   -0.517213
     10          1           0        2.315244   -1.024126    1.060911
     11          1           0        0.329707   -1.734852   -0.311144
     12          1           0        0.854085   -0.706092   -1.645471
     13          1           0       -0.804420    1.089650    1.921477
     14          1           0        0.919992    0.658255    1.951335
     15          1           0       -0.300783   -0.631665    1.944551
     16          1           0        0.434922    1.760746   -1.614987
     17          1           0        1.465474    1.945680   -0.170465
     18          1           0       -0.210630    2.541112   -0.143550
     19          1           0       -1.465963    0.117341   -1.623586
     20          1           0       -2.101797    1.026987   -0.229606
     21          1           0       -2.244262   -1.006364    0.842725
 ---------------------------------------------------------------------

 SCF Done:  E(RwB97XD) =  -311.943156790     A.U. after    1 cycles

 The electronic state is 1-A.
 Alpha  occ. eigenvalues --  -19.24738 -10.33093 -10.30404 -10.28646 -10.28277
 Alpha  occ. eigenvalues --  -10.28176 -10.27901  -1.11097  -0.91569  -0.82551
 Alpha  occ. eigenvalues --   -0.78055  -0.76209  -0.71074  -0.62946  -0.59164
 Alpha  occ. eigenvalues --   -0.55060  -0.54159  -0.52986  -0.51656  -0.47390
 Alpha  occ. eigenvalues --   -0.46813  -0.46677  -0.46017  -0.43149  -0.42979
 Alpha  occ. eigenvalues --   -0.40894  -0.39917  -0.38637  -0.34619
 Alpha virt. eigenvalues --    0.12311   0.14606   0.16522   0.17525   0.18951
 Alpha virt. eigenvalues --    0.19524   0.20088   0.21484   0.22543   0.23790
 Alpha virt. eigenvalues --    0.24184   0.25424   0.26168   0.27802   0.28606

 Mulliken charges:
               1
     1  C   -0.315786
     2  C   -0.176262
     3  C   -0.263497
     4  C   -0.321864
     5  C   -0.284396
     6  C    0.075119
     7  O   -0.484273
     8  H    0.114112
     9  H    0.121537
    10  H    0.116511
    11  H    0.113999
    12  H    0.094312
    13  H    0.112944
    14  H    0.129819
    15  H    0.113792
    16  H    0.115595
    17  H    0.123008
    18  H    0.112749
    19  H    0.097597
    20  H    0.086929
    21  H    0.318056
 Sum of Mulliken charges =  -0.00000

 Dipole moment (field-independent basis, Debye):
    X=              0.4084    Y=              1.0602    Z=              1.1002  Tot=              1.5815
 Evaluate density.
 Using the total density.
 Monte-Carlo method of calculating molar volume:
 based on  0.001 e/bohr**3 density envelope.
 Number of points per bohr**3 =  100 CutOff= 1.00D-04
 Using the SCF density.
 There are      1826 points.  Will hold      1826 in memory.
 LenV=  1048308926 MDV=  1048576000.
 Box volume = 6096.921 fraction occupied=0.187
 Integrated density= 5.6980342210768683D+01 error=-1.0196577892313172D+00

 Normal termination of Gaussian 16 at Tue Apr  2 13:51:48 2024.
