 Gaussian 16, Revision B.01,
 Gaussian 16:  ES64L-G16RevB.01 20-Dec-2017

 ----------------------------------------------------------------------
 #T wB97XD/def2svpp opt=tight freq int(grid=ultrafine) scf=(verytight,q
 c)
 ----------------------------------------------------------------------
 --------------
 Comment gs min
 --------------
 Symbolic Z-matrix:
 Charge =  0 Multiplicity = 1

 SCF Done:  E(RwB97XD) =  -272.671762463     a.u. after    7 cycles
 SCF Done:  E(RwB97XD) =  -272.673354626     a.u. after    6 cycles
 SCF Done:  E(RwB97XD) =  -272.673475449     a.u. after    6 cycles
 SCF Done:  E(RwB97XD) =  -272.673495352     a.u. after    5 cycles
 SCF Done:  E(RwB97XD) =  -272.673501630     a.u. after    3 cycles
 SCF Done:  E(RwB97XD) =  -272.673501967     a.u. after    2 cycles
 SCF Done:  E(RwB97XD) =  -272.673502150     a.u. after    2 cycles
 SCF Done:  E(RwB97XD) =  -272.673502295     a.u. after    2 cycles
 SCF Done:  E(RwB97XD) =  -272.673502326     a.u. after    2 cycles
 SCF Done:  E(RwB97XD) =  -272.673502330     a.u. after    2 cycles
 SCF Done:  E(RwB97XD) =  -272.673502328     a.u. after    2 cycles
 SCF Done:  E(RwB97XD) =  -272.673502330     a.u. after    2 cycles
 SCF Done:  E(RwB97XD) =  -272.673502330     a.u. after    2 cycles
 Optimization completed.
    -- Stationary point found.

 1\1\GINC-C564\FOpt\RwB97XD\def2SVPP\C5H12O1\PETERCHAO1\04-Aug-2022\0\\
 #T wB97XD/def2svpp opt=tight freq int(grid=ultrafine) scf=(verytight,q
 c)\\Comment gs min\\0,1\C,0.9407192723,0.0755102962,0.0761178951\C,2.4
 758647561,0.0926155315,0.0641765773\C,2.9753721999,1.5146523421,-0.217
 1581668\C,3.004675754,-0.3961545206,1.4176966459\C,2.9994896254,-0.861
 2500402,-1.0276821892\O,2.5983981939,-0.5274090526,-2.3318754649\H,0.5
 465499071,0.7083951193,0.8907101504\H,0.5511877258,-0.9483571399,0.229
 3138525\H,0.5228590332,0.4696886443,-0.8680105906\H,2.5749757506,2.229

 Normal termination of Gaussian 16 at Thu Aug  4 16:17:19 2022.

 ---------------------------------------------------------------------
 #T Geom=AllCheck Guess=TCheck SCRF=Check GenChk RwB97XD/def2SVPP Freq
 ---------------------------------------------------------------------
 Structure from the checkpoint file:  "/scratch/user/peterchao1/peterchao1/6097799_1659647585000000525322498/Gau-212040.chk"
 --------------
 Comment gs min
 --------------
 Charge =  0 Multiplicity = 1

                         Standard orientation:
 ---------------------------------------------------------------------
 Center     Atomic      Atomic             Coordinates (Angstroms)
 Number     Number       Type             X           Y           Z
 ---------------------------------------------------------------------
      1          6           0       -0.414763    1.523910   -0.210448
      2          6           0       -0.405069    0.004353    0.008546
      3          6           0       -0.481203   -0.302773    1.508787
      4          6           0       -1.596091   -0.626643   -0.722115
      5          6           0        0.888569   -0.598219   -0.574211
      6          8           0        2.070059   -0.114979    0.012140
      7          1           0       -1.360539    1.967050    0.148172
      8          1           0       -0.312142    1.776323   -1.282486
      9          1           0        0.402853    2.019324    0.344017
     10          1           0       -1.376032    0.159287    1.963178
     11          1           0        0.412920    0.079314    2.029117
     12          1           0       -0.534158   -1.392038    1.686517
     13          1           0       -2.550881   -0.241643   -0.322051
     14          1           0       -1.600988   -1.725257   -0.602797
     15          1           0       -1.570451   -0.403068   -1.804327
     16          1           0        0.896928   -0.443179   -1.674926
     17          1           0        0.891092   -1.688121   -0.400524
     18          1           0        2.192266    0.808072   -0.244368
 ---------------------------------------------------------------------

 SCF Done:  E(RwB97XD) =  -272.673502330     a.u. after    1 cycles

 The electronic state is 1-A.
 Alpha  occ. eigenvalues --  -19.24735 -10.33153 -10.30526 -10.28670 -10.28340
 Alpha  occ. eigenvalues --  -10.27541  -1.11099  -0.91150  -0.78028  -0.77216
 Alpha  occ. eigenvalues --   -0.76007  -0.63658  -0.59032  -0.55158  -0.54346
 Alpha  occ. eigenvalues --   -0.51846  -0.49863  -0.46927  -0.46185  -0.44744
 Alpha  occ. eigenvalues --   -0.44276  -0.41664  -0.40922  -0.39458  -0.34745
 Alpha virt. eigenvalues --    0.12093   0.15139   0.17712   0.18184   0.19079
 Alpha virt. eigenvalues --    0.20301   0.20555   0.22762   0.23972   0.24678
 Alpha virt. eigenvalues --    0.26549   0.27155   0.27809   0.30038   0.31718

 Mulliken charges:
               1
     1  C   -0.306314
     2  C   -0.273499
     3  C   -0.265566
     4  C   -0.277580
     5  C    0.064626
     6  O   -0.483674
     7  H    0.121751
     8  H    0.113030
     9  H    0.110026
    10  H    0.110953
    11  H    0.125682
    12  H    0.110285
    13  H    0.117409
    14  H    0.116411
    15  H    0.112970
    16  H    0.086095
    17  H    0.099683
    18  H    0.317710
 Sum of Mulliken charges =   0.00000

 Dipole moment (field-independent basis, Debye):
    X=             -0.9397    Y=              1.0142    Z=             -0.8409  Tot=              1.6183
  Exact polarizability:  57.219   1.189  57.811   0.290  -0.144  56.577
 Approx polarizability:  59.021   0.965  60.198   0.721  -0.344  58.254
   1 Symmetry operations used in ECPInt.
 ECPInt:  NShTT=    1830 NPrTT=    7374 LenC2=    1828 LenP2D=    6157.
 LDataN:  DoStor=T MaxTD1= 6 Len=  172
 Calling FoFJK, ICntrl=    100127 FMM=F ISym2X=0 I1Cent= 0 IOpClX= 0 NMat=1 NMatS=1 NMatT=0.
 Full mass-weighted force constant matrix:
 Low frequencies ---  -11.1183    0.0004    0.0011    0.0014    1.2496    9.9674
 Low frequencies ---  120.8881  223.7829  254.7418
 Diagonal vibrational polarizability:

                      1                      2                      3
                      A                      A                      A
 Frequencies --    120.8877               223.7820               254.7410
 Red. masses --      2.2075                 1.0936                 2.4248
 Frc consts  --      0.0190                 0.0323                 0.0927
 IR Inten    --      3.4943                 2.2145                 5.3370

                      4                      5                      6
                      A                      A                      A
 Frequencies --    272.5892               280.4645               334.3517
 Red. masses --      1.0492                 1.1548                 1.3510
 Frc consts  --      0.0459                 0.0535                 0.0890
 IR Inten    --     22.3964                 1.0859                75.9500

                      7                      8                      9
                      A                      A                      A
 Frequencies --    344.2236               362.5967               415.5190
 Red. masses --      1.6809                 2.2564                 2.2621
 Frc consts  --      0.1174                 0.1748                 0.2301
 IR Inten    --     37.1529                 3.3346                 0.8045

                     10                     11                     12
                      A                      A                      A
 Frequencies --    433.9963               547.7110               763.1461
 Red. masses --      1.9267                 3.0691                 3.3490
 Frc consts  --      0.2138                 0.5425                 1.1492
 IR Inten    --      8.3357                 7.1603                 3.0480

                     13                     14                     15
                      A                      A                      A
 Frequencies --    924.9971               932.6063               960.3797
 Red. masses --      1.9498                 1.6437                 1.5061
 Frc consts  --      0.9829                 0.8423                 0.8184
 IR Inten    --      6.1072                 8.3183                 1.9407

                     16                     17                     18
                      A                      A                      A
 Frequencies --    963.1220               969.5943              1053.3571
 Red. masses --      1.3978                 1.2180                 1.4194
 Frc consts  --      0.7639                 0.6747                 0.9279
 IR Inten    --      0.8505                 0.7913                 0.8210

                     19                     20                     21
                      A                      A                      A
 Frequencies --   1067.5659              1145.7391              1194.3227
 Red. masses --      1.3838                 4.4060                 1.2764
 Frc consts  --      0.9292                 3.4077                 1.0727
 IR Inten    --     18.6974               111.4016                13.6569

                     22                     23                     24
                      A                      A                      A
 Frequencies --   1265.6879              1305.1839              1318.7662
 Red. masses --      2.4312                 2.7586                 1.9399
 Frc consts  --      2.2947                 2.7687                 1.9878
 IR Inten    --      3.8748                 1.5048                 9.8767

                     25                     26                     27
                      A                      A                      A
 Frequencies --   1396.7587              1406.6745              1414.1314
 Red. masses --      1.2282                 1.3548                 1.3263
 Frc consts  --      1.4118                 1.5794                 1.5627
 IR Inten    --      2.9077                14.1766                17.4685

                     28                     29                     30
                      A                      A                      A
 Frequencies --   1423.2550              1447.5124              1474.1766
 Red. masses --      1.2455                 1.2736                 1.0477
 Frc consts  --      1.4864                 1.5722                 1.3415
 IR Inten    --     11.9250                21.4004                 0.0548

                     31                     32                     33
                      A                      A                      A
 Frequencies --   1482.0405              1484.3245              1494.0692
 Red. masses --      1.0467                 1.0477                 1.0769
 Frc consts  --      1.3545                 1.3600                 1.4163
 IR Inten    --      0.3927                 0.1106                 8.9794

                     34                     35                     36
                      A                      A                      A
 Frequencies --   1502.9944              1509.8251              1518.8252
 Red. masses --      1.0722                 1.0721                 1.0781
 Frc consts  --      1.4270                 1.4399                 1.4653
 IR Inten    --      5.8470                 7.0584                22.7589

                     37                     38                     39
                      A                      A                      A
 Frequencies --   2982.6941              3017.4685              3020.9096
 Red. masses --      1.0706                 1.0375                 1.0375
 Frc consts  --      5.6115                 5.5660                 5.5786
 IR Inten    --     64.4037                33.0699                27.4500

                     40                     41                     42
                      A                      A                      A
 Frequencies --   3028.2173              3096.0158              3106.2757
 Red. masses --      1.0384                 1.0979                 1.1048
 Frc consts  --      5.6105                 6.2001                 6.2807
 IR Inten    --     12.5712                20.9699                18.3623

                     43                     44                     45
                      A                      A                      A
 Frequencies --   3110.8884              3113.0614              3115.1094
 Red. masses --      1.1044                 1.1046                 1.1043
 Frc consts  --      6.2970                 6.3071                 6.3137
 IR Inten    --     22.2786                21.8591                10.8166

                     46                     47                     48
                      A                      A                      A
 Frequencies --   3117.7176              3136.2703              3784.8524
 Red. masses --      1.1033                 1.1038                 1.0659
 Frc consts  --      6.3183                 6.3966                 8.9966
 IR Inten    --     49.8409                15.0926                27.4429

 Optimization completed.
    -- Stationary point found.

 1\1\GINC-C564\Freq\RwB97XD\def2SVPP\C5H12O1\PETERCHAO1\04-Aug-2022\0\\
 #T Geom=AllCheck Guess=TCheck SCRF=Check GenChk RwB97XD/def2SVPP Freq\
 \Comment gs min\\0,1\C,0.9407192723,0.0755102962,0.0761178951\C,2.4758
 647561,0.0926155315,0.0641765773\C,2.9753721999,1.5146523421,-0.217158
 1668\C,3.004675754,-0.3961545206,1.4176966459\C,2.9994896254,-0.861250
 0402,-1.0276821892\O,2.5983981939,-0.5274090526,-2.3318754649\H,0.5465
 499071,0.7083951193,0.8907101504\H,0.5511877258,-0.9483571399,0.229313
 8525\H,0.5228590332,0.4696886443,-0.8680105906\H,2.5749757506,2.229438

 Normal termination of Gaussian 16 at Thu Aug  4 16:18:30 2022.
