 Gaussian 16, Revision B.01,
 Gaussian 16:  ES64L-G16RevB.01 20-Dec-2017

 --------------------------------------------------------------
 #T wB97XD//def2svpp Volume=tight Geom=AllCheckpoint Guess=Read
 --------------------------------------------------------------
 Structure from the checkpoint file:  "5.chk"
 -----
 Dimer
 -----
 Charge =  0 Multiplicity = 1

                         Standard orientation:
 ---------------------------------------------------------------------
 Center     Atomic      Atomic             Coordinates (Angstroms)
 Number     Number       Type             X           Y           Z
 ---------------------------------------------------------------------
      1          6           0       -1.313306   -0.632335    0.095484
      2          6           0       -0.000023   -0.000017   -0.370743
      3          6           0        0.109020    1.453492    0.095395
      4          6           0        1.204297   -0.821146    0.095392
      5          1           0       -1.411502   -1.670163   -0.269218
      6          1           0       -2.185857   -0.061900   -0.269217
      7          1           0       -1.365844   -0.657645    1.200022
      8          1           0       -0.000064   -0.000013   -1.477387
      9          1           0        0.113358    1.511684    1.199920
     10          1           0       -0.740676    2.057425   -0.269334
     11          1           0        1.039332    1.923916   -0.269288
     12          1           0        1.146490   -1.862108   -0.269055
     13          1           0        1.252672   -0.853796    1.199924
     14          1           0        2.152154   -0.387364   -0.269531
 ---------------------------------------------------------------------

 SCF Done:  E(RwB97XD) =  -158.275178460     A.U. after    1 cycles

 The electronic state is 1-A.
 Alpha  occ. eigenvalues --  -10.29497 -10.27762 -10.27761 -10.27760  -0.89347
 Alpha  occ. eigenvalues --   -0.76799  -0.76799  -0.64369  -0.54972  -0.51570
 Alpha  occ. eigenvalues --   -0.51570  -0.46462  -0.46461  -0.44288  -0.40808
 Alpha  occ. eigenvalues --   -0.40808  -0.39977
 Alpha virt. eigenvalues --    0.13264   0.17775   0.19133   0.19134   0.20819
 Alpha virt. eigenvalues --    0.20819   0.22274   0.24918   0.24919   0.27423
 Alpha virt. eigenvalues --    0.28727   0.32293   0.32293   0.48603   0.48603

 Mulliken charges:
               1
     1  C   -0.303767
     2  C   -0.206439
     3  C   -0.303770
     4  C   -0.303777
     5  H    0.116271
     6  H    0.116272
     7  H    0.108072
     8  H    0.095917
     9  H    0.108067
    10  H    0.116271
    11  H    0.116272
    12  H    0.116271
    13  H    0.108067
    14  H    0.116273
 Sum of Mulliken charges =   0.00000

 Dipole moment (field-independent basis, Debye):
    X=             -0.0000    Y=             -0.0000    Z=             -0.0996  Tot=              0.0996
 Evaluate density.
 Using the total density.
 Monte-Carlo method of calculating molar volume:
 based on  0.001 e/bohr**3 density envelope.
 Number of points per bohr**3 =  100 CutOff= 1.00D-04
 Using the SCF density.
 There are      1624 points.  Will hold      1624 in memory.
 LenV=  1048433418 MDV=  1048576000.
 Box volume = 4284.234 fraction occupied=0.159
 Integrated density= 2.8059883554664129D+01 error=-5.9401164453358710D+00

 Normal termination of Gaussian 16 at Tue Nov 14 10:44:04 2023.
