 Gaussian 16, Revision B.01,
 Gaussian 16:  ES64L-G16RevB.01 20-Dec-2017

 ----------------------------------------------------------------------
 #T wB97XD/def2svpp opt=tight freq int(grid=ultrafine) scf=(verytight,q
 c)
 ----------------------------------------------------------------------
 -------
 comment
 -------
 Symbolic Z-matrix:
 Charge =  1 Multiplicity = 2

 SCF Done:  E(UwB97XD) =  -571.663150132     a.u. after   11 cycles
 SCF Done:  E(UwB97XD) =  -571.672227010     a.u. after   11 cycles
 SCF Done:  E(UwB97XD) =  -571.670486481     a.u. after   14 cycles
 SCF Done:  E(UwB97XD) =  -571.675160943     a.u. after   12 cycles
 SCF Done:  E(UwB97XD) =  -571.674874868     a.u. after   11 cycles
 SCF Done:  E(UwB97XD) =  -571.675282269     a.u. after   10 cycles
 SCF Done:  E(UwB97XD) =  -571.675929389     a.u. after   11 cycles
 SCF Done:  E(UwB97XD) =  -571.676071282     a.u. after    7 cycles
 SCF Done:  E(UwB97XD) =  -571.676152490     a.u. after    7 cycles
 SCF Done:  E(UwB97XD) =  -571.676254299     a.u. after    7 cycles
 SCF Done:  E(UwB97XD) =  -571.687911879     a.u. after    4 cycles
 SCF Done:  E(UwB97XD) =  -571.687916715     a.u. after    3 cycles
 SCF Done:  E(UwB97XD) =  -571.687918677     a.u. after    3 cycles
 SCF Done:  E(UwB97XD) =  -571.687919982     a.u. after    3 cycles
 SCF Done:  E(UwB97XD) =  -571.687920152     a.u. after    2 cycles
 SCF Done:  E(UwB97XD) =  -571.687920182     a.u. after    2 cycles
 SCF Done:  E(UwB97XD) =  -571.687920185     a.u. after    2 cycles
 SCF Done:  E(UwB97XD) =  -571.687920170     a.u. after    2 cycles
 SCF Done:  E(UwB97XD) =  -571.687920186     a.u. after    2 cycles
 Optimization completed.
    -- Stationary point found.
 Normal termination of Gaussian 16 at Mon Jul 10 20:34:56 2023.

 ---------------------------------------------------------------------
 #T Geom=AllCheck Guess=TCheck SCRF=Check GenChk UwB97XD/def2SVPP Freq
 ---------------------------------------------------------------------
 Structure from the checkpoint file:  "26.chk"
 -------
 comment
 -------
 Charge =  1 Multiplicity = 2

                         Standard orientation:
 ---------------------------------------------------------------------
 Center     Atomic      Atomic             Coordinates (Angstroms)
 Number     Number       Type             X           Y           Z
 ---------------------------------------------------------------------
      1          8           0       -2.079597    1.131306   -0.399383
      2          6           0       -1.424226    0.058007   -1.051685
      3          6           0        0.002925   -0.063609   -0.490866
      4          6           0        0.445425   -1.539161   -0.597793
      5          8           0       -0.354562   -2.233500    0.311593
      6          6           0        1.024697    0.870633   -1.148372
      7          8           0        2.238335    0.660157   -0.467273
      8          6           0        0.095878    0.294658    1.012834
      9          8           0       -0.931986    0.507264    1.738969
     10          8           0        1.235248    0.389999    1.494563
     11          1           0       -2.973664    1.268224   -0.748742
     12          1           0       -1.363737    0.231758   -2.140839
     13          1           0       -1.958021   -0.890703   -0.873097
     14          1           0        1.521569   -1.624810   -0.367043
     15          1           0        0.285879   -1.866594   -1.646186
     16          1           0       -0.066503   -3.153233    0.399869
     17          1           0        0.693595    1.921679   -1.107644
     18          1           0        1.164293    0.574344   -2.204971
     19          1           0        2.691750    1.487088   -0.223336
     20          1           0       -1.722870    0.687270    1.139538
 ---------------------------------------------------------------------

 SCF Done:  E(UwB97XD) =  -571.687920186     a.u. after    1 cycles

 The electronic state is 2-A.
 Alpha  occ. eigenvalues --  -19.52813 -19.50818 -19.49893 -19.45969 -19.41803
 Alpha  occ. eigenvalues --  -10.65224 -10.54844 -10.53214 -10.53144 -10.51828
 Alpha  occ. eigenvalues --   -1.43474  -1.36460  -1.34256  -1.31384  -1.28586
 Alpha  occ. eigenvalues --   -1.11008  -0.97771  -0.95157  -0.92465  -0.91207
 Alpha  occ. eigenvalues --   -0.83596  -0.81272  -0.80218  -0.78844  -0.77430
 Alpha  occ. eigenvalues --   -0.76259  -0.75057  -0.72656  -0.70781  -0.69518
 Alpha  occ. eigenvalues --   -0.67889  -0.66290  -0.65873  -0.63191  -0.62601
 Alpha  occ. eigenvalues --   -0.60794  -0.58760  -0.57524  -0.55853  -0.52469
 Alpha virt. eigenvalues --   -0.12903  -0.04136  -0.03530  -0.01044   0.00601
 Alpha virt. eigenvalues --    0.02729   0.04004   0.05284   0.05909   0.06326
 Alpha virt. eigenvalues --    0.07677   0.08734   0.09646   0.10648   0.12626

  Beta  occ. eigenvalues --  -19.51219 -19.49947 -19.49805 -19.45966 -19.41799
  Beta  occ. eigenvalues --  -10.65308 -10.54871 -10.53152 -10.53100 -10.51836
  Beta  occ. eigenvalues --   -1.41958  -1.34620  -1.32228  -1.30762  -1.28552
  Beta  occ. eigenvalues --   -1.10560  -0.97435  -0.95058  -0.91653  -0.90258
  Beta  occ. eigenvalues --   -0.83012  -0.81087  -0.79905  -0.77429  -0.76330
  Beta  occ. eigenvalues --   -0.75272  -0.74665  -0.72026  -0.70448  -0.67973
  Beta  occ. eigenvalues --   -0.66981  -0.65369  -0.63338  -0.61443  -0.61300
  Beta  occ. eigenvalues --   -0.58474  -0.56912  -0.55900  -0.52447
  Beta virt. eigenvalues --   -0.30091  -0.12458  -0.03885  -0.03387  -0.00984
  Beta virt. eigenvalues --    0.00643   0.02926   0.04204   0.05449   0.06016
  Beta virt. eigenvalues --    0.06449   0.07808   0.08863   0.09787   0.10837

 Mulliken charges and spin densities:
               1          2
     1  O   -0.522444   0.000792
     2  C    0.051477  -0.005137
     3  C   -0.434475   0.086680
     4  C    0.054833  -0.003522
     5  O   -0.481659   0.000792
     6  C    0.039269  -0.020420
     7  O   -0.344781   0.309748
     8  C    0.348739  -0.047447
     9  O   -0.243423   0.019053
    10  O   -0.036034   0.629219
    11  H    0.380709   0.000023
    12  H    0.159392   0.004432
    13  H    0.183950   0.000297
    14  H    0.168542  -0.000850
    15  H    0.148454   0.002144
    16  H    0.362268   0.000193
    17  H    0.183864   0.000710
    18  H    0.190311   0.031852
    19  H    0.390160  -0.010482
    20  H    0.400849   0.001926
 Sum of Mulliken charges =   1.00000   1.00000

 Dipole moment (field-independent basis, Debye):
    X=             -0.5654    Y=              1.1362    Z=             -4.1103  Tot=              4.3018
  Exact polarizability:  77.851   3.074  59.566 -11.878  -3.550  82.339
 Approx polarizability:  82.731   0.785  62.120  -7.063  -1.301  87.359
                          Isotropic Fermi Contact Couplings
        Atom                 a.u.       MegaHertz       Gauss      10(-4) cm-1
     1  O(17)              0.00335      -2.03218      -0.72513      -0.67786
     2  C(13)             -0.00416      -4.67312      -1.66749      -1.55878
     3  C(13)              0.00192       2.15799       0.77002       0.71983
     4  C(13)             -0.00498      -5.59721      -1.99722      -1.86703
     5  O(17)              0.00437      -2.65187      -0.94625      -0.88457
     6  C(13)             -0.01934     -21.74546      -7.75932      -7.25350

                      1                      2                      3
                      A                      A                      A
 Frequencies --     86.1958               115.5122               125.9384
 Red. masses --      4.4887                 5.6832                 4.7319
 Frc consts  --      0.0196                 0.0447                 0.0442
 IR Inten    --      3.1130                 1.6783                 0.7402

                      4                      5                      6
                      A                      A                      A
 Frequencies --    168.7214               212.5447               265.7330
 Red. masses --      4.8425                 2.8740                 2.8933
 Frc consts  --      0.0812                 0.0765                 0.1204
 IR Inten    --      4.9736                10.4750                 9.6328

                      7                      8                      9
                      A                      A                      A
 Frequencies --    290.6787               305.9010               327.9423
 Red. masses --      2.3085                 1.6145                 2.8554
 Frc consts  --      0.1149                 0.0890                 0.1809
 IR Inten    --     11.6996               107.0765                 2.2807

                     10                     11                     12
                      A                      A                      A
 Frequencies --    339.8456               381.0535               407.9198
 Red. masses --      2.5006                 3.8134                 2.4944
 Frc consts  --      0.1702                 0.3262                 0.2445
 IR Inten    --     35.8251                 1.9391                27.9966

                     13                     14                     15
                      A                      A                      A
 Frequencies --    464.6256               483.7433               527.3721
 Red. masses --      1.3804                 1.6157                 5.0260
 Frc consts  --      0.1756                 0.2228                 0.8236
 IR Inten    --     91.1901                43.7457                44.4796

                     16                     17                     18
                      A                      A                      A
 Frequencies --    570.1582               635.7246               731.0637
 Red. masses --      4.4427                 3.8203                 5.2333
 Frc consts  --      0.8509                 0.9097                 1.6479
 IR Inten    --      4.5110                33.8335                26.5205

                     19                     20                     21
                      A                      A                      A
 Frequencies --    770.1153               882.8171               889.0501
 Red. masses --      5.2655                 1.4702                 1.4222
 Frc consts  --      1.8399                 0.6751                 0.6623
 IR Inten    --     18.2061                61.8239                39.1828

                     22                     23                     24
                      A                      A                      A
 Frequencies --    946.9013               981.2810              1067.7704
 Red. masses --      1.7230                 1.7193                 4.3057
 Frc consts  --      0.9102                 0.9754                 2.8923
 IR Inten    --      5.1655                 7.6213                66.8765

                     25                     26                     27
                      A                      A                      A
 Frequencies --   1103.9300              1125.1432              1153.4735
 Red. masses --      2.3739                 2.7114                 3.2320
 Frc consts  --      1.7045                 2.0224                 2.5336
 IR Inten    --     32.8316                14.3832                31.6530

                     28                     29                     30
                      A                      A                      A
 Frequencies --   1175.5658              1189.1910              1233.2211
 Red. masses --      2.2055                 1.7719                 1.4050
 Frc consts  --      1.7957                 1.4763                 1.2590
 IR Inten    --     38.7382                33.8854                36.0515

                     31                     32                     33
                      A                      A                      A
 Frequencies --   1250.1867              1271.5414              1286.2305
 Red. masses --      1.2697                 1.1212                 1.5363
 Frc consts  --      1.1692                 1.0681                 1.4975
 IR Inten    --     60.9200                25.7538                75.7599

                     34                     35                     36
                      A                      A                      A
 Frequencies --   1323.3612              1334.1369              1354.1705
 Red. masses --      1.3307                 1.3578                 2.4660
 Frc consts  --      1.3731                 1.4239                 2.6643
 IR Inten    --     15.5683                 9.3455                56.3666

                     37                     38                     39
                      A                      A                      A
 Frequencies --   1407.8904              1449.1187              1474.3989
 Red. masses --      1.4557                 1.4605                 1.4343
 Frc consts  --      1.7000                 1.8070                 1.8371
 IR Inten    --     11.4543                12.8984                 2.3382

                     40                     41                     42
                      A                      A                      A
 Frequencies --   1490.4787              1500.2162              1529.9574
 Red. masses --      1.1193                 1.5322                 1.1598
 Frc consts  --      1.4651                 2.0317                 1.5996
 IR Inten    --     42.5622               158.8238                72.3713

                     43                     44                     45
                      A                      A                      A
 Frequencies --   1539.1701              1649.5847              3012.2820
 Red. masses --      1.1124                 6.8703                 1.0667
 Frc consts  --      1.5526                11.0148                 5.7026
 IR Inten    --     19.4609               539.5508                17.3621

                     46                     47                     48
                      A                      A                      A
 Frequencies --   3046.5360              3049.9556              3068.7427
 Red. masses --      1.0615                 1.0637                 1.0662
 Frc consts  --      5.8049                 5.8296                 5.9155
 IR Inten    --     25.5318               345.0846               438.0273

                     49                     50                     51
                      A                      A                      A
 Frequencies --   3105.0592              3126.3083              3129.8818
 Red. masses --      1.1023                 1.1116                 1.1101
 Frc consts  --      6.2617                 6.4014                 6.4071
 IR Inten    --      8.7159                 3.4084                11.7967

                     52                     53                     54
                      A                      A                      A
 Frequencies --   3693.0781              3754.6891              3771.9813
 Red. masses --      1.0685                 1.0671                 1.0671
 Frc consts  --      8.5859                 8.8635                 8.9456
 IR Inten    --    345.4449               165.5540               135.2367

 Optimization completed.
    -- Stationary point found.
 Normal termination of Gaussian 16 at Mon Jul 10 20:38:41 2023.
