 Gaussian 16, Revision B.01,
 Gaussian 16:  ES64L-G16RevB.01 20-Dec-2017

 ----------------------------------------------------------------------
 #T wB97XD/def2svpp opt=tight freq int(grid=ultrafine) scf=(verytight,q
 c) Volume=tight
 ----------------------------------------------------------------------
 -------
 Monomer
 -------
 Symbolic Z-matrix:
 Charge =  0 Multiplicity = 1

 SCF Done:  E(RwB97XD) =  -5494.41085110     a.u. after    8 cycles
 SCF Done:  E(RwB97XD) =  -5494.41163049     a.u. after    9 cycles
 SCF Done:  E(RwB97XD) =  -5494.41141567     a.u. after    9 cycles
 SCF Done:  E(RwB97XD) =  -5494.41191286     a.u. after   11 cycles
 SCF Done:  E(RwB97XD) =  -5494.41224372     a.u. after    7 cycles
 SCF Done:  E(RwB97XD) =  -5494.41227354     a.u. after    7 cycles
 SCF Done:  E(RwB97XD) =  -5494.41230212     a.u. after    4 cycles
 SCF Done:  E(RwB97XD) =  -5494.41230574     a.u. after    3 cycles
 SCF Done:  E(RwB97XD) =  -5494.41230602     a.u. after    2 cycles
 SCF Done:  E(RwB97XD) =  -5494.41230610     a.u. after    2 cycles
 SCF Done:  E(RwB97XD) =  -5494.41230610     a.u. after    2 cycles
 SCF Done:  E(RwB97XD) =  -5494.41230611     a.u. after    2 cycles
 SCF Done:  E(RwB97XD) =  -5494.41230611     a.u. after    2 cycles
 SCF Done:  E(RwB97XD) =  -5494.41230610     a.u. after    2 cycles
 SCF Done:  E(RwB97XD) =  -5494.41230611     a.u. after    2 cycles
 Optimization completed.
    -- Stationary point found.
 Normal termination of Gaussian 16 at Fri Mar 29 15:45:18 2024.

 ---------------------------------------------------------------------
 #T Geom=AllCheck Guess=TCheck SCRF=Check GenChk RwB97XD/def2SVPP Freq
 ---------------------------------------------------------------------
 Structure from the checkpoint file:  "monomer.chk"
 -------
 Monomer
 -------
 Charge =  0 Multiplicity = 1

                         Standard orientation:
 ---------------------------------------------------------------------
 Center     Atomic      Atomic             Coordinates (Angstroms)
 Number     Number       Type             X           Y           Z
 ---------------------------------------------------------------------
      1          8           0       -0.915956    1.751204    1.640531
      2          6           0       -0.040010    0.704793    1.277443
      3          6           0        0.053387    0.507500   -0.251055
      4          6           0        0.659531    1.782038   -0.897882
      5          8           0       -0.151390    2.911342   -0.754445
      6          6           0        0.887914   -0.731922   -0.584699
      7         35           0        2.709545   -0.724115    0.110992
      8          6           0       -1.333712    0.331279   -0.885836
      9         35           0       -2.478901   -1.000751   -0.030168
     10          1           0       -1.827940    1.426651    1.608823
     11          1           0       -0.330509   -0.242744    1.767570
     12          1           0        0.952133    0.984141    1.663859
     13          1           0        0.794948    1.617827   -1.981930
     14          1           0        1.667367    1.940740   -0.464061
     15          1           0       -0.424324    2.963847    0.178954
     16          1           0        0.988846   -0.848716   -1.673984
     17          1           0        0.417906   -1.638540   -0.176062
     18          1           0       -1.250570    0.025073   -1.938895
     19          1           0       -1.884286    1.279556   -0.849602
 ---------------------------------------------------------------------

 SCF Done:  E(RwB97XD) =  -5494.41230611     a.u. after    1 cycles

 The electronic state is 1-A.
 Alpha  occ. eigenvalues -- -483.06803-483.06004 -62.65013 -62.64218 -56.45775
 Alpha  occ. eigenvalues --  -56.45428 -56.45423 -56.44991 -56.44628 -56.44621
 Alpha  occ. eigenvalues --  -19.28302 -19.24730 -10.36441 -10.36375 -10.35881
 Alpha  occ. eigenvalues --  -10.34978 -10.34322  -8.81954  -8.81164  -6.64467
 Alpha  occ. eigenvalues --   -6.63716  -6.63205  -6.63186  -6.62399  -6.62370
 Alpha  occ. eigenvalues --   -2.74836  -2.74481  -2.74466  -2.74077  -2.73710
 Alpha  occ. eigenvalues --   -2.73687  -2.73461  -2.73461  -2.72638  -2.72637
 Alpha  occ. eigenvalues --   -1.14619  -1.11369  -0.96479  -0.91327  -0.86963
 Alpha  occ. eigenvalues --   -0.79336  -0.77014  -0.76305  -0.67189  -0.64194
 Alpha  occ. eigenvalues --   -0.59812  -0.58403  -0.56375  -0.54985  -0.52495
 Alpha  occ. eigenvalues --   -0.52076  -0.50321  -0.49004  -0.46639  -0.45563
 Alpha  occ. eigenvalues --   -0.44938  -0.42017  -0.39189  -0.38010  -0.37277
 Alpha  occ. eigenvalues --   -0.36619  -0.36307  -0.34920
 Alpha virt. eigenvalues --    0.06248   0.07129   0.11759   0.13119   0.15993
 Alpha virt. eigenvalues --    0.16587   0.18804   0.19613   0.20468   0.20858
 Alpha virt. eigenvalues --    0.22388   0.23870   0.25323   0.27165   0.28289

 Mulliken charges:
               1
     1  O   -0.501603
     2  C    0.048725
     3  C   -0.312137
     4  C    0.094397
     5  O   -0.500293
     6  C   -0.197580
     7  Br  -0.110050
     8  C   -0.219213
     9  Br  -0.124700
    10  H    0.336588
    11  H    0.125926
    12  H    0.134173
    13  H    0.101829
    14  H    0.116210
    15  H    0.332762
    16  H    0.160930
    17  H    0.173911
    18  H    0.163271
    19  H    0.176856
 Sum of Mulliken charges =   0.00000

 Dipole moment (field-independent basis, Debye):
    X=             -0.8945    Y=             -1.1982    Z=             -0.1346  Tot=              1.5014
  Exact polarizability: 105.939   3.526  83.435   0.043  -2.492  75.396
 Approx polarizability: 112.544   4.567  97.111   0.490  -3.195  91.052
   1 Symmetry operations used in ECPInt.
 ECPInt:  NShTT=    3741 NPrTT=   17221 LenC2=    3600 LenP2D=   12192.
 LDataN:  DoStor=T MaxTD1= 6 Len=  172
 Calling FoFJK, ICntrl=    100127 FMM=F ISym2X=0 I1Cent= 0 IOpClX= 0 NMat=1 NMatS=1 NMatT=0.
 Full mass-weighted force constant matrix:
 Low frequencies ---   -5.1843   -0.0101   -0.0058    0.0071    1.0499    8.2114
 Low frequencies ---   59.3293   69.3024  118.4565
 Diagonal vibrational polarizability:

                      1                      2                      3
                      A                      A                      A
 Frequencies --     59.3174                69.2821               118.4553
 Red. masses --      8.3134                 5.1235                 6.3760
 Frc consts  --      0.0172                 0.0145                 0.0527
 IR Inten    --      3.2817                 3.3144                 0.9107

                      4                      5                      6
                      A                      A                      A
 Frequencies --    140.1933               175.7168               202.0964
 Red. masses --      6.9033                 6.0346                 2.6845
 Frc consts  --      0.0799                 0.1098                 0.0646
 IR Inten    --      3.2801                 2.1253                 1.7637

                      7                      8                      9
                      A                      A                      A
 Frequencies --    227.1788               301.7130               310.6313
 Red. masses --      3.3657                 4.3654                 2.7948
 Frc consts  --      0.1023                 0.2341                 0.1589
 IR Inten    --      3.2101                 6.7888                 4.8046

                     10                     11                     12
                      A                      A                      A
 Frequencies --    351.1850               408.6876               450.0906
 Red. masses --      2.5404                 2.1338                 1.3904
 Frc consts  --      0.1846                 0.2100                 0.1660
 IR Inten    --      0.8176                17.9295               136.9590

                     13                     14                     15
                      A                      A                      A
 Frequencies --    485.5831               581.1096               632.3138
 Red. masses --      2.8766                 3.0152                 1.2902
 Frc consts  --      0.3996                 0.5999                 0.3039
 IR Inten    --      2.1294                23.6311               154.7786

                     16                     17                     18
                      A                      A                      A
 Frequencies --    676.3530               715.0655               802.4797
 Red. masses --      3.8800                 3.9228                 3.6084
 Frc consts  --      1.0458                 1.1818                 1.3691
 IR Inten    --      9.6298                17.8999                 7.1549

                     19                     20                     21
                      A                      A                      A
 Frequencies --    853.8797               870.1782               950.8557
 Red. masses --      1.6575                 1.6930                 1.5767
 Frc consts  --      0.7120                 0.7553                 0.8399
 IR Inten    --      8.0525                13.6147                 9.8981

                     22                     23                     24
                      A                      A                      A
 Frequencies --    969.3536              1088.6794              1107.8526
 Red. masses --      1.6368                 1.6253                 1.8026
 Frc consts  --      0.9062                 1.1350                 1.3035
 IR Inten    --      9.5730                 1.5938                47.5289

                     25                     26                     27
                      A                      A                      A
 Frequencies --   1125.3367              1153.8690              1177.2284
 Red. masses --      4.2506                 2.0954                 2.3952
 Frc consts  --      3.1715                 1.6437                 1.9557
 IR Inten    --     31.3576                61.4106                71.4113

                     28                     29                     30
                      A                      A                      A
 Frequencies --   1228.2137              1245.6269              1265.8606
 Red. masses --      1.1457                 1.5160                 1.2044
 Frc consts  --      1.0183                 1.3859                 1.1371
 IR Inten    --     36.9714                 8.9511                22.9231

                     31                     32                     33
                      A                      A                      A
 Frequencies --   1295.9911              1328.0977              1344.7806
 Red. masses --      1.3743                 1.6115                 1.6518
 Frc consts  --      1.3600                 1.6747                 1.7600
 IR Inten    --      7.7144                27.2684                23.5892

                     34                     35                     36
                      A                      A                      A
 Frequencies --   1388.8661              1411.6473              1442.7423
 Red. masses --      1.2505                 1.1939                 1.3999
 Frc consts  --      1.4211                 1.4018                 1.7169
 IR Inten    --      1.0376                24.3772                 6.1722

                     37                     38                     39
                      A                      A                      A
 Frequencies --   1471.4377              1484.4027              1489.1251
 Red. masses --      1.1275                 1.1039                 1.1757
 Frc consts  --      1.4383                 1.4331                 1.5361
 IR Inten    --     12.3375                18.2346                90.1239

                     40                     41                     42
                      A                      A                      A
 Frequencies --   1500.4710              1519.3993              3016.3168
 Red. masses --      1.0793                 1.0901                 1.0645
 Frc consts  --      1.4316                 1.4827                 5.7064
 IR Inten    --     16.2352                 2.5651                39.1944

                     43                     44                     45
                      A                      A                      A
 Frequencies --   3055.2667              3086.0818              3097.0207
 Red. masses --      1.0675                 1.1039                 1.0604
 Frc consts  --      5.8711                 6.1946                 5.9927
 IR Inten    --     21.1265                25.0232                 7.5356

                     46                     47                     48
                      A                      A                      A
 Frequencies --   3113.5308              3141.4735              3169.9933
 Red. masses --      1.0635                 1.1034                 1.1110
 Frc consts  --      6.0744                 6.4157                 6.5779
 IR Inten    --      4.7751                10.6200                 0.9275

                     49                     50                     51
                      A                      A                      A
 Frequencies --   3195.9244              3662.3481              3749.2096
 Red. masses --      1.1068                 1.0654                 1.0663
 Frc consts  --      6.6604                 8.4194                 8.8308
 IR Inten    --      1.5502               137.0488                48.8593

 Optimization completed.
    -- Stationary point found.
 Normal termination of Gaussian 16 at Fri Mar 29 15:48:09 2024.
