 Gaussian 16, Revision B.01,
 Gaussian 16:  ES64L-G16RevB.01 20-Dec-2017

 ----------------------------------------------------------------------
 #T wB97XD/def2svpp opt=tight freq int(grid=ultrafine) scf=(verytight,q
 c)
 ----------------------------------------------------------------------
 -------
 comment
 -------
 Symbolic Z-matrix:
 Charge =  1 Multiplicity = 2

 SCF Done:  E(UwB97XD) =  -1575.52338575     a.u. after   11 cycles
 SCF Done:  E(UwB97XD) =  -1575.52677760     a.u. after   10 cycles
 SCF Done:  E(UwB97XD) =  -1575.52753556     a.u. after   10 cycles
 SCF Done:  E(UwB97XD) =  -1575.52758496     a.u. after    7 cycles
 SCF Done:  E(UwB97XD) =  -1575.52775879     a.u. after    5 cycles
 SCF Done:  E(UwB97XD) =  -1575.52778823     a.u. after    4 cycles
 SCF Done:  E(UwB97XD) =  -1575.52781322     a.u. after    4 cycles
 SCF Done:  E(UwB97XD) =  -1575.52783981     a.u. after    6 cycles
 SCF Done:  E(UwB97XD) =  -1575.52789856     a.u. after    5 cycles
 SCF Done:  E(UwB97XD) =  -1575.51857438     a.u. after   34 cycles
 SCF Done:  E(UwB97XD) =  -1575.52930896     a.u. after    5 cycles
 SCF Done:  E(UwB97XD) =  -1575.52931751     a.u. after    4 cycles
 SCF Done:  E(UwB97XD) =  -1575.52932458     a.u. after    3 cycles
 SCF Done:  E(UwB97XD) =  -1575.52932624     a.u. after    3 cycles
 SCF Done:  E(UwB97XD) =  -1575.52932651     a.u. after    2 cycles
 SCF Done:  E(UwB97XD) =  -1575.52932653     a.u. after    2 cycles
 SCF Done:  E(UwB97XD) =  -1575.52932653     a.u. after    2 cycles
 SCF Done:  E(UwB97XD) =  -1575.52932653     a.u. after    2 cycles
 SCF Done:  E(UwB97XD) =  -1575.52932653     a.u. after    2 cycles
 Optimization completed.
    -- Stationary point found.
 Normal termination of Gaussian 16 at Mon Jul 10 20:04:54 2023.

 ---------------------------------------------------------------------
 #T Geom=AllCheck Guess=TCheck SCRF=Check GenChk UwB97XD/def2SVPP Freq
 ---------------------------------------------------------------------
 Structure from the checkpoint file:  "20.chk"
 -------
 comment
 -------
 Charge =  1 Multiplicity = 2

                         Standard orientation:
 ---------------------------------------------------------------------
 Center     Atomic      Atomic             Coordinates (Angstroms)
 Number     Number       Type             X           Y           Z
 ---------------------------------------------------------------------
      1          6           0       -0.646533   -0.729478    1.721796
      2          6           0       -0.142818    0.089585    0.548625
      3          6           0        0.208324   -0.924447   -0.746999
      4         17           0        1.239637   -2.229214   -0.359766
      5          6           0       -1.192376    1.021240   -0.057182
      6         17           0       -2.716612    0.232520   -0.467989
      7          6           0        1.154493    0.830452    0.903042
      8         17           0        1.806851    1.859191   -0.382758
      9          1           0       -1.453714   -1.418996    1.423402
     10          1           0       -1.074813   -0.048323    2.480038
     11          1           0        0.161259   -1.310220    2.193662
     12          1           0        0.676256   -0.277627   -1.506169
     13          1           0       -0.812655   -1.290821   -0.983812
     14          1           0       -0.826875    1.559717   -0.944094
     15          1           0       -1.423115    1.779761    0.719299
     16          1           0        1.938925    0.129366    1.221547
     17          1           0        0.920302    1.490583    1.759157
 ---------------------------------------------------------------------

 SCF Done:  E(UwB97XD) =  -1575.52932653     a.u. after    1 cycles

 The electronic state is 2-A.
 Alpha  occ. eigenvalues -- -101.91578-101.86541-101.84986 -10.58295 -10.57391
 Alpha  occ. eigenvalues --  -10.54756 -10.54408 -10.47757  -9.82302  -9.77260
 Alpha  occ. eigenvalues --   -9.75733  -7.57513  -7.57261  -7.56466  -7.52598
 Alpha  occ. eigenvalues --   -7.51887  -7.51541  -7.51107  -7.50245  -7.50053
 Alpha  occ. eigenvalues --   -1.21387  -1.17215  -1.14132  -1.08309  -0.98502
 Alpha  occ. eigenvalues --   -0.96481  -0.94925  -0.83729  -0.79197  -0.77624
 Alpha  occ. eigenvalues --   -0.76341  -0.73879  -0.71541  -0.70163  -0.68624
 Alpha  occ. eigenvalues --   -0.67074  -0.65658  -0.64641  -0.64126  -0.60780
 Alpha  occ. eigenvalues --   -0.59908  -0.57124  -0.56627  -0.55585  -0.55018
 Alpha virt. eigenvalues --   -0.06997  -0.06606  -0.05628  -0.02616  -0.01586
 Alpha virt. eigenvalues --    0.00719   0.01067   0.01380   0.03514   0.04281
 Alpha virt. eigenvalues --    0.05869   0.06858   0.07645   0.09808   0.10585

  Beta  occ. eigenvalues -- -101.91364-101.86449-101.84942 -10.58001 -10.57120
  Beta  occ. eigenvalues --  -10.54724 -10.54381 -10.47754  -9.82065  -9.77157
  Beta  occ. eigenvalues --   -9.75683  -7.57362  -7.56500  -7.56306  -7.52528
  Beta  occ. eigenvalues --   -7.51565  -7.51470  -7.51076  -7.50086  -7.50019
  Beta  occ. eigenvalues --   -1.20330  -1.16527  -1.13787  -1.07568  -0.97640
  Beta  occ. eigenvalues --   -0.95463  -0.94471  -0.82410  -0.78564  -0.76704
  Beta  occ. eigenvalues --   -0.75567  -0.73615  -0.71006  -0.69398  -0.67477
  Beta  occ. eigenvalues --   -0.66752  -0.64740  -0.63884  -0.63061  -0.59527
  Beta  occ. eigenvalues --   -0.57224  -0.55920  -0.54907  -0.54431
  Beta virt. eigenvalues --   -0.37336  -0.06353  -0.06106  -0.05315  -0.02080
  Beta virt. eigenvalues --   -0.00748   0.00947   0.01308   0.01824   0.03762
  Beta virt. eigenvalues --    0.04465   0.06076   0.07127   0.07859   0.10135

 Mulliken charges and spin densities:
               1          2
     1  C   -0.279103   0.008347
     2  C   -0.368506   0.168071
     3  C   -0.146469   0.177440
     4  Cl   0.161303   0.306525
     5  C   -0.148376   0.010455
     6  Cl   0.017857   0.127274
     7  C   -0.130813   0.012604
     8  Cl  -0.026032   0.063670
     9  H    0.188172   0.006357
    10  H    0.192378   0.017607
    11  H    0.179390  -0.001314
    12  H    0.231610  -0.001515
    13  H    0.235108   0.015414
    14  H    0.217881   0.002493
    15  H    0.239968   0.051215
    16  H    0.208112   0.001069
    17  H    0.227518   0.034288
 Sum of Mulliken charges =   1.00000   1.00000

 Dipole moment (field-independent basis, Debye):
    X=             -0.0772    Y=             -0.8401    Z=              1.5742  Tot=              1.7860
  Exact polarizability: 175.097 -12.512 140.356   4.441   5.049  73.824
 Approx polarizability: 146.456 -16.637 134.376   1.384   0.833  85.799
                          Isotropic Fermi Contact Couplings
        Atom                 a.u.       MegaHertz       Gauss      10(-4) cm-1
     1  C(13)             -0.00662      -7.44750      -2.65745      -2.48422
     2  C(13)              0.00452       5.08526       1.81455       1.69626
     3  C(13)              0.01754      19.71890       7.03619       6.57752
     4  Cl(35)             0.05144      22.55521       8.04826       7.52361
     5  C(13)             -0.00684      -7.68576      -2.74247      -2.56369
     6  Cl(35)             0.02288      10.03377       3.58030       3.34691

                      1                      2                      3
                      A                      A                      A
 Frequencies --     60.2422                82.8134               112.3356
 Red. masses --     10.7050                 4.9752                 7.4537
 Frc consts  --      0.0229                 0.0201                 0.0554
 IR Inten    --      2.1816                 7.0750                 0.9426

                      4                      5                      6
                      A                      A                      A
 Frequencies --    164.3772               205.0673               222.0176
 Red. masses --      2.6964                 4.6016                 5.1131
 Frc consts  --      0.0429                 0.1140                 0.1485
 IR Inten    --     16.7148                14.7159                 5.4533

                      7                      8                      9
                      A                      A                      A
 Frequencies --    254.2046               292.6138               314.1085
 Red. masses --      1.1213                 2.3111                 3.1218
 Frc consts  --      0.0427                 0.1166                 0.1815
 IR Inten    --      2.0165                47.4410                 2.2268

                     10                     11                     12
                      A                      A                      A
 Frequencies --    398.6978               408.3304               441.8245
 Red. masses --      3.1890                 5.0393                 3.1394
 Frc consts  --      0.2987                 0.4950                 0.3611
 IR Inten    --     16.4706                62.1632                31.4144

                     13                     14                     15
                      A                      A                      A
 Frequencies --    501.8651               702.7509               745.2978
 Red. masses --      3.6689                 1.8208                 3.0691
 Frc consts  --      0.5444                 0.5298                 1.0044
 IR Inten    --     11.1611                77.8818                16.2344

                     16                     17                     18
                      A                      A                      A
 Frequencies --    755.5832               821.8247               845.9061
 Red. masses --      2.2418                 3.7800                 2.3354
 Frc consts  --      0.7541                 1.5042                 0.9846
 IR Inten    --    296.1763               118.2125                22.2474

                     19                     20                     21
                      A                      A                      A
 Frequencies --    872.5638               897.9053               937.4619
 Red. masses --      2.9647                 2.6402                 1.7486
 Frc consts  --      1.3299                 1.2541                 0.9054
 IR Inten    --      6.5509                53.3535                43.2742

                     22                     23                     24
                      A                      A                      A
 Frequencies --   1014.1747              1099.1787              1134.3960
 Red. masses --      1.4338                 1.3662                 1.2739
 Frc consts  --      0.8689                 0.9725                 0.9659
 IR Inten    --     33.4247                 1.4605                46.4590

                     25                     26                     27
                      A                      A                      A
 Frequencies --   1143.5914              1162.0894              1184.1685
 Red. masses --      1.3071                 1.2759                 1.5603
 Frc consts  --      1.0072                 1.0152                 1.2891
 IR Inten    --     10.2398                 5.3365                35.8584

                     28                     29                     30
                      A                      A                      A
 Frequencies --   1231.2947              1287.7679              1320.8099
 Red. masses --      1.2073                 1.3889                 1.3648
 Frc consts  --      1.0784                 1.3570                 1.4029
 IR Inten    --      3.2708                38.6467                10.0423

                     31                     32                     33
                      A                      A                      A
 Frequencies --   1385.8278              1413.5365              1424.2960
 Red. masses --      1.0954                 1.1699                 1.0853
 Frc consts  --      1.2395                 1.3772                 1.2971
 IR Inten    --     54.8042                25.3602                14.9666

                     34                     35                     36
                      A                      A                      A
 Frequencies --   1426.8889              1459.7702              1475.4701
 Red. masses --      1.1286                 1.0639                 1.0619
 Frc consts  --      1.3538                 1.3357                 1.3621
 IR Inten    --      2.2225                13.0313                12.4380

                     37                     38                     39
                      A                      A                      A
 Frequencies --   2974.4844              3011.1839              3038.2219
 Red. masses --      1.0615                 1.0658                 1.0431
 Frc consts  --      5.5333                 5.6940                 5.6729
 IR Inten    --    137.6070               307.2070                48.9530

                     40                     41                     42
                      A                      A                      A
 Frequencies --   3055.1253              3130.8617              3134.4660
 Red. masses --      1.0631                 1.0995                 1.1008
 Frc consts  --      5.8465                 6.3498                 6.3722
 IR Inten    --    102.2319                 7.6420               121.7403

                     43                     44                     45
                      A                      A                      A
 Frequencies --   3145.7647              3164.2642              3167.7237
 Red. masses --      1.0972                 1.1041                 1.1034
 Frc consts  --      6.3971                 6.5132                 6.5235
 IR Inten    --     39.4772                11.9486                13.1643

 Optimization completed.
    -- Stationary point found.
 Normal termination of Gaussian 16 at Mon Jul 10 20:07:24 2023.
