 Gaussian 16, Revision B.01,
 Gaussian 16:  ES64L-G16RevB.01 20-Dec-2017

 ----------------------------------------------------------------------
 #T wB97XD/def2svpp opt=tight freq int(grid=ultrafine) scf=(verytight,q
 c)
 ----------------------------------------------------------------------
 --------------
 Comment gs min
 --------------
 Symbolic Z-matrix:
 Charge =  0 Multiplicity = 1

 SCF Done:  E(RwB97XD) =  -767.627416410     a.u. after    9 cycles
 SCF Done:  E(RwB97XD) =  -767.652354362     a.u. after   11 cycles
 SCF Done:  E(RwB97XD) =  -767.654284442     a.u. after   13 cycles
 SCF Done:  E(RwB97XD) =  -767.642661029     a.u. after   25 cycles
 SCF Done:  E(RwB97XD) =  -767.655486969     a.u. after   13 cycles
 SCF Done:  E(RwB97XD) =  -767.651773777     a.u. after   18 cycles
 SCF Done:  E(RwB97XD) =  -767.655862738     a.u. after   10 cycles
 SCF Done:  E(RwB97XD) =  -767.654844619     a.u. after   14 cycles
 SCF Done:  E(RwB97XD) =  -767.656134891     a.u. after   11 cycles
 SCF Done:  E(RwB97XD) =  -767.656518826     a.u. after   16 cycles
 SCF Done:  E(RwB97XD) =  -767.665163327     a.u. after    5 cycles
 SCF Done:  E(RwB97XD) =  -767.665167724     a.u. after    4 cycles
 SCF Done:  E(RwB97XD) =  -767.665169662     a.u. after    3 cycles
 SCF Done:  E(RwB97XD) =  -767.665170564     a.u. after    3 cycles
 SCF Done:  E(RwB97XD) =  -767.665171229     a.u. after    3 cycles
 SCF Done:  E(RwB97XD) =  -767.665171468     a.u. after    2 cycles
 SCF Done:  E(RwB97XD) =  -767.665171528     a.u. after    2 cycles
 SCF Done:  E(RwB97XD) =  -767.665171529     a.u. after    2 cycles
 SCF Done:  E(RwB97XD) =  -767.665171532     a.u. after    2 cycles
 Optimization completed.
    -- Stationary point found.
 Normal termination of Gaussian 16 at Mon Jun 26 18:01:25 2023.

 ---------------------------------------------------------------------
 #T Geom=AllCheck Guess=TCheck SCRF=Check GenChk RwB97XD/def2SVPP Freq
 ---------------------------------------------------------------------
 Structure from the checkpoint file:  "45.chk"
 --------------
 Comment gs min
 --------------
 Charge =  0 Multiplicity = 1

                         Standard orientation:
 ---------------------------------------------------------------------
 Center     Atomic      Atomic             Coordinates (Angstroms)
 Number     Number       Type             X           Y           Z
 ---------------------------------------------------------------------
      1          8           0       -2.129706    0.295744    1.266840
      2          6           0       -0.785026    0.095438    1.515786
      3          6           0        0.016371    0.007179    0.209285
      4          7           0       -0.387570    1.143448   -0.713301
      5          8           0       -0.827560    0.844715   -1.790614
      6          8           0       -0.238097    2.238226   -0.245207
      7          7           0        1.509379    0.084638    0.453756
      8          8           0        2.165593    0.767887   -0.279884
      9          8           0        1.889521   -0.592891    1.377226
     10          7           0       -0.222507   -1.302978   -0.525653
     11          8           0        0.664137   -1.705691   -1.223322
     12          8           0       -1.301581   -1.815501   -0.342386
     13          1           0       -2.496088   -0.513029    0.875724
     14          1           0       -0.559291   -0.810431    2.106241
     15          1           0       -0.406255    0.972087    2.062773
 ---------------------------------------------------------------------

 SCF Done:  E(RwB97XD) =  -767.665171532     a.u. after    1 cycles

 The electronic state is 1-A.
 Alpha  occ. eigenvalues --  -19.35790 -19.35706 -19.35169 -19.34886 -19.34693
 Alpha  occ. eigenvalues --  -19.34553 -19.30599 -14.75481 -14.74981 -14.74602
 Alpha  occ. eigenvalues --  -10.49537 -10.41651  -1.42062  -1.39983  -1.39493
 Alpha  occ. eigenvalues --   -1.23551  -1.23027  -1.22595  -1.18040  -1.04331
 Alpha  occ. eigenvalues --   -0.86177  -0.85974  -0.84674  -0.72975  -0.72022
 Alpha  occ. eigenvalues --   -0.71769  -0.70614  -0.68725  -0.67551  -0.66422
 Alpha  occ. eigenvalues --   -0.65642  -0.65399  -0.64984  -0.60654  -0.58442
 Alpha  occ. eigenvalues --   -0.50147  -0.47779  -0.46754  -0.45816  -0.45750
 Alpha  occ. eigenvalues --   -0.45330  -0.44838  -0.44286  -0.43513  -0.43473
 Alpha  occ. eigenvalues --   -0.41893
 Alpha virt. eigenvalues --   -0.06049  -0.05032  -0.04211   0.10576   0.12035
 Alpha virt. eigenvalues --    0.15517   0.15641   0.18589   0.20603   0.23806
 Alpha virt. eigenvalues --    0.26564   0.32062   0.32537   0.33343   0.41331

 Mulliken charges:
               1
     1  O   -0.456760
     2  C    0.098956
     3  C    0.090472
     4  N    0.262081
     5  O   -0.195631
     6  O   -0.184037
     7  N    0.243691
     8  O   -0.175158
     9  O   -0.204015
    10  N    0.246917
    11  O   -0.170433
    12  O   -0.223254
    13  H    0.345345
    14  H    0.159476
    15  H    0.162349
 Sum of Mulliken charges =  -0.00000

 Dipole moment (field-independent basis, Debye):
    X=             -1.1040    Y=             -1.0791    Z=              2.3112  Tot=              2.7794
  Exact polarizability:  63.534   3.530  60.031  -1.745  -0.272  61.745
 Approx polarizability:  83.148   8.415  79.742  -4.743  -0.508  85.662
   1 Symmetry operations used in ECPInt.
 ECPInt:  NShTT=    3081 NPrTT=   12411 LenC2=    3021 LenP2D=    9073.
 LDataN:  DoStor=T MaxTD1= 6 Len=  172
 Calling FoFJK, ICntrl=    100127 FMM=F ISym2X=0 I1Cent= 0 IOpClX= 0 NMat=1 NMatS=1 NMatT=0.
 Full mass-weighted force constant matrix:
 Low frequencies ---   -4.5997   -3.6681   -0.0009   -0.0006    0.0011   11.0046
 Low frequencies ---   50.2924   58.1017   98.2475
 Diagonal vibrational polarizability:

                      1                      2                      3
                      A                      A                      A
 Frequencies --     50.2838                58.0981                98.2459
 Red. masses --     13.9608                15.0348                14.6077
 Frc consts  --      0.0208                 0.0299                 0.0831
 IR Inten    --      0.7135                 0.0674                 0.2011

                      4                      5                      6
                      A                      A                      A
 Frequencies --    152.9414               173.1492               201.8817
 Red. masses --      7.4771                 8.5877                11.9315
 Frc consts  --      0.1030                 0.1517                 0.2865
 IR Inten    --      1.2329                 0.3769                 3.3304

                      7                      8                      9
                      A                      A                      A
 Frequencies --    234.2144               239.7630               317.5013
 Red. masses --      8.5750                 9.2712                 2.6110
 Frc consts  --      0.2771                 0.3140                 0.1551
 IR Inten    --      6.2134                10.4997                 2.2574

                     10                     11                     12
                      A                      A                      A
 Frequencies --    381.7306               397.8179               428.0267
 Red. masses --      8.5014                14.6380                12.2018
 Frc consts  --      0.7299                 1.3649                 1.3171
 IR Inten    --      0.9169                 0.6279                 1.6168

                     13                     14                     15
                      A                      A                      A
 Frequencies --    449.2758               546.6954               569.4913
 Red. masses --     14.4030                 1.3179                 3.5896
 Frc consts  --      1.7129                 0.2321                 0.6859
 IR Inten    --      2.1823               109.8817               101.5679

                     16                     17                     18
                      A                      A                      A
 Frequencies --    695.7535               704.9437               751.8761
 Red. masses --      9.3678                 9.0754                 6.5285
 Frc consts  --      2.6718                 2.6572                 2.1745
 IR Inten    --     12.6219                16.4261                 8.8739

                     19                     20                     21
                      A                      A                      A
 Frequencies --    835.3807               862.9018               915.0451
 Red. masses --      6.1944                13.9575                13.5489
 Frc consts  --      2.5469                 6.1232                 6.6840
 IR Inten    --     23.6875                63.4032                16.1790

                     22                     23                     24
                      A                      A                      A
 Frequencies --    931.7922              1085.6385              1104.0420
 Red. masses --      3.0742                10.9227                 2.0492
 Frc consts  --      1.5726                 7.5849                 1.4717
 IR Inten    --     40.7624                 3.1677                45.1962

                     25                     26                     27
                      A                      A                      A
 Frequencies --   1178.6069              1190.8786              1281.9201
 Red. masses --      7.0917                 5.9955                 1.3219
 Frc consts  --      5.8042                 5.0097                 1.2799
 IR Inten    --     24.5413                62.4164                42.4478

                     28                     29                     30
                      A                      A                      A
 Frequencies --   1400.0298              1442.8533              1459.2861
 Red. masses --      1.3418                 1.3055                12.3816
 Frc consts  --      1.5495                 1.6013                15.5348
 IR Inten    --     12.0484                73.0395               151.1761

                     31                     32                     33
                      A                      A                      A
 Frequencies --   1464.0989              1492.4308              1525.6406
 Red. masses --      8.8369                 1.1328                 8.1936
 Frc consts  --     11.1607                 1.4867                11.2364
 IR Inten    --    125.8777                10.5989                15.1328

                     34                     35                     36
                      A                      A                      A
 Frequencies --   1802.1320              1809.3768              1827.2523
 Red. masses --     14.3633                13.9782                14.4606
 Frc consts  --     27.4839                26.9625                28.4469
 IR Inten    --    209.0822               387.3160               238.3730

                     37                     38                     39
                      A                      A                      A
 Frequencies --   3077.2941              3162.8232              3742.2114
 Red. masses --      1.0646                 1.1064                 1.0650
 Frc consts  --      5.9401                 6.5208                 8.7869
 IR Inten    --      7.1854                 0.2980                88.6599

 Optimization completed.
    -- Stationary point found.
 Normal termination of Gaussian 16 at Mon Jun 26 18:03:54 2023.
