 Gaussian 16, Revision B.01,
 Gaussian 16:  ES64L-G16RevB.01 20-Dec-2017

 --------------------------------------------------------------
 #T wB97XD//def2svpp Volume=tight Geom=AllCheckpoint Guess=Read
 --------------------------------------------------------------
 Structure from the checkpoint file:  "26.chk"
 -------
 Monomer
 -------
 Charge =  0 Multiplicity = 1

                         Standard orientation:
 ---------------------------------------------------------------------
 Center     Atomic      Atomic             Coordinates (Angstroms)
 Number     Number       Type             X           Y           Z
 ---------------------------------------------------------------------
      1          6           0       -0.295640    1.719177   -0.047229
      2          6           0       -0.146768    0.225998    0.189746
      3          6           0       -0.387028   -0.149293    1.651629
      4          6           0       -1.070171   -0.584253   -0.754143
      5          8           0       -2.420922   -0.292364   -0.535229
      6          7           0        1.274863   -0.214739   -0.151813
      7          8           0        2.065725    0.616818   -0.528753
      8          8           0        1.518815   -1.395945   -0.023088
      9          1           0       -1.348732    1.990096    0.129275
     10          1           0       -0.035785    1.988032   -1.082544
     11          1           0        0.346901    2.300797    0.632109
     12          1           0       -1.404655    0.159898    1.941736
     13          1           0        0.322725    0.375481    2.312943
     14          1           0       -0.275622   -1.234359    1.807103
     15          1           0       -0.848755   -1.660253   -0.636349
     16          1           0       -0.846221   -0.303079   -1.796913
     17          1           0       -2.745202   -0.811275    0.211874
 ---------------------------------------------------------------------

 SCF Done:  E(RwB97XD) =  -437.687925606     A.U. after    1 cycles

 The electronic state is 1-A.
 Alpha  occ. eigenvalues --  -19.29072 -19.28776 -19.27638 -14.67864 -10.36995
 Alpha  occ. eigenvalues --  -10.36236 -10.31375 -10.29876  -1.33683  -1.15853
 Alpha  occ. eigenvalues --   -1.14155  -0.95475  -0.81049  -0.79796  -0.78178
 Alpha  occ. eigenvalues --   -0.66213  -0.64640  -0.62617  -0.61494  -0.60074
 Alpha  occ. eigenvalues --   -0.55579  -0.55238  -0.51110  -0.50381  -0.48798
 Alpha  occ. eigenvalues --   -0.47043  -0.45626  -0.43059  -0.39796  -0.39691
 Alpha  occ. eigenvalues --   -0.38218  -0.37292
 Alpha virt. eigenvalues --    0.01116   0.10933   0.14973   0.16204   0.18017
 Alpha virt. eigenvalues --    0.18774   0.19303   0.20744   0.22832   0.23657
 Alpha virt. eigenvalues --    0.25413   0.26552   0.29381   0.30310   0.31516

 Mulliken charges:
               1
     1  C   -0.241115
     2  C   -0.208281
     3  C   -0.299105
     4  C    0.051935
     5  O   -0.471254
     6  N    0.243188
     7  O   -0.235724
     8  O   -0.255373
     9  H    0.140215
    10  H    0.135212
    11  H    0.134390
    12  H    0.131041
    13  H    0.143971
    14  H    0.150020
    15  H    0.132187
    16  H    0.121483
    17  H    0.327209
 Sum of Mulliken charges =  -0.00000

 Dipole moment (field-independent basis, Debye):
    X=             -2.8466    Y=              0.0448    Z=              1.8408  Tot=              3.3902
 Evaluate density.
 Using the total density.
 Monte-Carlo method of calculating molar volume:
 based on  0.001 e/bohr**3 density envelope.
 Number of points per bohr**3 =  100 CutOff= 1.00D-04
 Using the SCF density.
 There are      1778 points.  Will hold      1778 in memory.
 LenV=  1048305418 MDV=  1048576000.
 Box volume = 5624.884 fraction occupied=0.174
 Integrated density= 3.9520967905453824D+02 error= 3.3120967905453824D+02

 Normal termination of Gaussian 16 at Fri Sep 23 14:21:21 2022.
