 Gaussian 16, Revision B.01,
 Gaussian 16:  ES64L-G16RevB.01 20-Dec-2017

 ----------------------------------------------------------------------
 #T wB97XD/def2svpp opt(tight,calcall) int(grid=ultrafine) scf=(verytig
 ht,qc)
 ----------------------------------------------------------------------
 -----
 dimer
 -----
 Symbolic Z-matrix:
 Charge =  0 Multiplicity = 1

 SCF Done:  E(RwB97XD) =  -1188.14685110     a.u. after    8 cycles
 SCF Done:  E(RwB97XD) =  -1188.14969962     a.u. after    7 cycles
 SCF Done:  E(RwB97XD) =  -1188.15005130     a.u. after    9 cycles
 SCF Done:  E(RwB97XD) =  -1188.15008767     a.u. after    6 cycles
 SCF Done:  E(RwB97XD) =  -1188.15008423     a.u. after    3 cycles
 SCF Done:  E(RwB97XD) =  -1188.15007445     a.u. after    2 cycles
 SCF Done:  E(RwB97XD) =  -1188.15007358     a.u. after    3 cycles
 SCF Done:  E(RwB97XD) =  -1188.15007468     a.u. after    2 cycles
 SCF Done:  E(RwB97XD) =  -1188.15007356     a.u. after    2 cycles
 SCF Done:  E(RwB97XD) =  -1188.15007468     a.u. after    2 cycles
 SCF Done:  E(RwB97XD) =  -1188.15007839     a.u. after    2 cycles
 SCF Done:  E(RwB97XD) =  -1188.15008448     a.u. after    2 cycles
 SCF Done:  E(RwB97XD) =  -1188.15008598     a.u. after    2 cycles
 SCF Done:  E(RwB97XD) =  -1188.15008520     a.u. after    2 cycles
 SCF Done:  E(RwB97XD) =  -1188.15008330     a.u. after    2 cycles
 SCF Done:  E(RwB97XD) =  -1188.15008430     a.u. after    2 cycles
 SCF Done:  E(RwB97XD) =  -1188.15007608     a.u. after    2 cycles
 SCF Done:  E(RwB97XD) =  -1188.15007317     a.u. after    2 cycles
 SCF Done:  E(RwB97XD) =  -1188.15007674     a.u. after    2 cycles
 SCF Done:  E(RwB97XD) =  -1188.15007697     a.u. after    2 cycles
 Optimization completed.
    -- Stationary point found.

                         Standard orientation:
 ---------------------------------------------------------------------
 Center     Atomic      Atomic             Coordinates (Angstroms)
 Number     Number       Type             X           Y           Z
 ---------------------------------------------------------------------
      1          9           0       -1.140060   -1.789084   -0.188094
      2          6           0       -1.843987   -0.852034   -0.924215
      3          6           0       -2.713636    0.000000    0.000000
      4          6           0       -1.843988    0.852034    0.924217
      5          9           0       -1.140062    1.789087    0.188099
      6          6           0       -3.591916    0.916908   -0.855116
      7          9           0       -4.424995    0.168052   -1.654233
      8          6           0       -3.591918   -0.916906    0.855114
      9          9           0       -4.424998   -0.168050    1.654230
     10          1           0       -2.469618   -1.395109   -1.651142
     11          1           0       -1.114661   -0.223496   -1.458222
     12          1           0       -1.114662    0.223495    1.458224
     13          1           0       -2.469620    1.395107    1.651145
     14          1           0       -2.970919    1.555637   -1.504574
     15          1           0       -4.214337    1.555484   -0.206394
     16          1           0       -2.970923   -1.555636    1.504574
     17          1           0       -4.214339   -1.555482    0.206392
     18          9           0        4.425009   -1.654220   -0.168050
     19          6           0        3.591926   -0.855108   -0.916907
     20          6           0        2.713636   -0.000001   -0.000001
     21          6           0        3.591909    0.855119    0.916909
     22          9           0        4.424982    1.654245    0.168056
     23          6           0        1.843984    0.924210   -0.852036
     24          9           0        1.140061    0.188086   -1.789088
     25          6           0        1.843993   -0.924225    0.852030
     26          9           0        1.140060   -0.188112    1.789082
     27          1           0        2.970937   -1.504571   -1.555639
     28          1           0        4.214344   -0.206381   -1.555480
     29          1           0        4.214335    0.206400    1.555484
     30          1           0        2.970907    1.504571    1.555640
     31          1           0        2.469611    1.651141   -1.395109
     32          1           0        1.114654    1.458213   -0.223498
     33          1           0        2.469628   -1.651149    1.395103
     34          1           0        1.114671   -1.458235    0.223489
 ---------------------------------------------------------------------

 The electronic state is 1-A.
 Alpha  occ. eigenvalues --  -24.81507 -24.81507 -24.81500 -24.81498 -24.80891
 Alpha  occ. eigenvalues --  -24.80891 -24.80887 -24.80887 -10.37994 -10.37994
 Alpha  occ. eigenvalues --  -10.37993 -10.37993 -10.37854 -10.37854 -10.37854
 Alpha  occ. eigenvalues --  -10.37853 -10.33513 -10.33512  -1.29669  -1.29521
 Alpha  occ. eigenvalues --   -1.29209  -1.29209  -1.29204  -1.29163  -1.28853
 Alpha  occ. eigenvalues --   -1.28853  -0.94456  -0.94376  -0.80090  -0.80090
 Alpha  occ. eigenvalues --   -0.79892  -0.79892  -0.78935  -0.78671  -0.67806
 Alpha  occ. eigenvalues --   -0.67412  -0.63759  -0.63364  -0.63026  -0.63026
 Alpha  occ. eigenvalues --   -0.62484  -0.62484  -0.61099  -0.60262  -0.60202
 Alpha  occ. eigenvalues --   -0.59392  -0.58301  -0.56996  -0.56996  -0.56975
 Alpha  occ. eigenvalues --   -0.56802  -0.56802  -0.54819  -0.54819  -0.54417
 Alpha  occ. eigenvalues --   -0.54417  -0.54373  -0.54203  -0.49673  -0.49434
 Alpha  occ. eigenvalues --   -0.45988  -0.45899  -0.45899  -0.45539  -0.45539
 Alpha  occ. eigenvalues --   -0.45511  -0.43341  -0.42611  -0.41902  -0.41600
 Alpha  occ. eigenvalues --   -0.41600  -0.41459  -0.41459  -0.40833
 Alpha virt. eigenvalues --    0.11792   0.13711   0.14776   0.15534   0.15534
 Alpha virt. eigenvalues --    0.16541   0.17376   0.17376   0.18073   0.18740
 Alpha virt. eigenvalues --    0.20535   0.20535   0.20855   0.20991   0.21187

 Mulliken charges:
               1
     1  F   -0.275322
     2  C    0.114041
     3  C   -0.456979
     4  C    0.114041
     5  F   -0.275322
     6  C    0.139877
     7  F   -0.276632
     8  C    0.139877
     9  F   -0.276632
    10  H    0.128703
    11  H    0.144123
    12  H    0.144123
    13  H    0.128703
    14  H    0.127526
    15  H    0.126173
    16  H    0.127526
    17  H    0.126173
    18  F   -0.276632
    19  C    0.139877
    20  C   -0.456979
    21  C    0.139877
    22  F   -0.276632
    23  C    0.114041
    24  F   -0.275322
    25  C    0.114042
    26  F   -0.275321
    27  H    0.127526
    28  H    0.126173
    29  H    0.126173
    30  H    0.127526
    31  H    0.128703
    32  H    0.144123
    33  H    0.128703
    34  H    0.144123
 Sum of Mulliken charges =  -0.00000

 Dipole moment (field-independent basis, Debye):
    X=              0.0000    Y=             -0.0000    Z=             -0.0000  Tot=              0.0000
  Exact polarizability: 114.973  -0.000  99.455  -0.000  -0.000  99.455
 Approx polarizability: 111.897  -0.000 110.336  -0.000  -0.000 110.336
 Rotating derivatives to standard orientation.
 Full mass-weighted force constant matrix:
 Low frequencies ---   -0.0010    0.0003    0.0009    3.5430    3.5434    6.6970
 Low frequencies ---   21.9653   21.9654   32.3278
 Diagonal vibrational polarizability:
       99.8326467      36.4704409      36.4705060
 Harmonic frequencies (cm**-1), IR intensities (KM/Mole), Raman scattering
 activities (A**4/AMU), depolarization ratios for plane and unpolarized

                      1                      2                      3
                      A                      A                      A
 Frequencies --     21.9528                21.9529                32.3278
 Red. masses --      8.7951                 8.7951                 7.3511
 Frc consts  --      0.0025                 0.0025                 0.0045
 IR Inten    --      0.0800                 0.0800                 0.0882

                      4                      5                      6
                      A                      A                      A
 Frequencies --     52.0682                52.0683                65.7181
 Red. masses --      8.3391                 8.3391                 9.6359
 Frc consts  --      0.0133                 0.0133                 0.0245
 IR Inten    --      0.1755                 0.1755                 0.0000

                      7                      8                      9
                      A                      A                      A
 Frequencies --     73.7957                86.6777               110.7832
 Red. masses --      6.2318                 6.9590                10.2346
 Frc consts  --      0.0200                 0.0308                 0.0740
 IR Inten    --      0.0000                14.8338                 0.0000

                     10                     11                     12
                      A                      A                      A
 Frequencies --    115.4029               134.4607               134.4608
 Red. masses --     10.8295                 3.9544                 3.9544
 Frc consts  --      0.0850                 0.0421                 0.0421
 IR Inten    --      8.4749                 4.1192                 4.1192

                     13                     14                     15
                      A                      A                      A
 Frequencies --    159.7445               161.3639               162.1918
 Red. masses --     10.1094                10.2822                 3.4677
 Frc consts  --      0.1520                 0.1577                 0.0537
 IR Inten    --      0.0000                 7.2912                12.4369

                     16                     17                     18
                      A                      A                      A
 Frequencies --    162.1919               247.3057               247.3059
 Red. masses --      3.4677                 4.3494                 4.3494
 Frc consts  --      0.0537                 0.1567                 0.1567
 IR Inten    --     12.4370                 3.1586                 3.1586

                     19                     20                     21
                      A                      A                      A
 Frequencies --    271.3819               271.9812               271.9814
 Red. masses --      2.9932                 3.8396                 3.8396
 Frc consts  --      0.1299                 0.1673                 0.1673
 IR Inten    --      0.0000                 3.5822                 3.5822

                     22                     23                     24
                      A                      A                      A
 Frequencies --    274.0866               344.2577               345.7696
 Red. masses --      2.8130                 2.3000                 2.2590
 Frc consts  --      0.1245                 0.1606                 0.1591
 IR Inten    --      1.6231                 0.0000                26.2755

                     25                     26                     27
                      A                      A                      A
 Frequencies --    372.0903               376.9818               511.6056
 Red. masses --      4.5061                 4.1994                 4.1378
 Frc consts  --      0.3676                 0.3516                 0.6381
 IR Inten    --      0.6328                 0.0000                14.6796

                     28                     29                     30
                      A                      A                      A
 Frequencies --    511.6058               527.8903               527.8904
 Red. masses --      4.1378                 4.2530                 4.2530
 Frc consts  --      0.6381                 0.6983                 0.6983
 IR Inten    --     14.6796                13.2623                13.2623

                     31                     32                     33
                      A                      A                      A
 Frequencies --    668.3280               669.7426               790.1706
 Red. masses --      4.1888                 4.2251                 3.4264
 Frc consts  --      1.1023                 1.1166                 1.2605
 IR Inten    --      0.0000                82.3284                 0.0000

                     34                     35                     36
                      A                      A                      A
 Frequencies --    791.6108               928.5549               928.7549
 Red. masses --      3.4548                 2.2486                 2.2478
 Frc consts  --      1.2756                 1.1423                 1.1424
 IR Inten    --      0.0112                 0.0000                11.0711

                     37                     38                     39
                      A                      A                      A
 Frequencies --    940.1158               940.1158               953.7970
 Red. masses --      1.6021                 1.6021                 1.5470
 Frc consts  --      0.8343                 0.8343                 0.8292
 IR Inten    --      3.4571                 3.4571                 2.1258

                     40                     41                     42
                      A                      A                      A
 Frequencies --    953.7971              1051.7266              1053.9288
 Red. masses --      1.5470                 1.6802                 1.6355
 Frc consts  --      0.8292                 1.0950                 1.0703
 IR Inten    --      2.1258                 0.0000                 0.0078

                     43                     44                     45
                      A                      A                      A
 Frequencies --   1091.3507              1091.3508              1096.7319
 Red. masses --      7.1277                 7.1277                 4.8898
 Frc consts  --      5.0018                 5.0018                 3.4653
 IR Inten    --     95.4740                95.4745                 0.0000

                     46                     47                     48
                      A                      A                      A
 Frequencies --   1102.0791              1113.2865              1113.2865
 Red. masses --      5.1448                 6.9599                 6.9599
 Frc consts  --      3.6816                 5.0824                 5.0824
 IR Inten    --     66.3822                91.1721                91.1723

                     49                     50                     51
                      A                      A                      A
 Frequencies --   1126.6174              1126.8410              1225.7806
 Red. masses --      5.7426                 5.8059                 1.7494
 Frc consts  --      4.2945                 4.3435                 1.5487
 IR Inten    --    233.1709                 0.0000                36.7422

                     52                     53                     54
                      A                      A                      A
 Frequencies --   1226.9523              1241.9029              1241.9029
 Red. masses --      1.7646                 2.1366                 2.1366
 Frc consts  --      1.5652                 1.9416                 1.9416
 IR Inten    --      0.0000                17.4696                17.4695

                     55                     56                     57
                      A                      A                      A
 Frequencies --   1248.0740              1248.0741              1288.6296
 Red. masses --      1.8920                 1.8920                 1.0600
 Frc consts  --      1.7365                 1.7365                 1.0371
 IR Inten    --     20.1202                20.1202                 2.8505

                     58                     59                     60
                      A                      A                      A
 Frequencies --   1291.1253              1305.9012              1305.9013
 Red. masses --      1.0609                 1.3381                 1.3381
 Frc consts  --      1.0420                 1.3445                 1.3445
 IR Inten    --      0.0000                 3.3416                 3.3416

                     61                     62                     63
                      A                      A                      A
 Frequencies --   1320.9819              1320.9820              1352.7391
 Red. masses --      1.4649                 1.4649                 1.2365
 Frc consts  --      1.5061                 1.5061                 1.3331
 IR Inten    --      6.2385                 6.2385                 0.0000

                     64                     65                     66
                      A                      A                      A
 Frequencies --   1355.3972              1437.3042              1437.3042
 Red. masses --      1.2577                 1.4098                 1.4098
 Frc consts  --      1.3613                 1.7160                 1.7160
 IR Inten    --      1.3104                15.8130                15.8130

                     67                     68                     69
                      A                      A                      A
 Frequencies --   1442.6578              1442.6578              1443.9367
 Red. masses --      1.4378                 1.4378                 1.5111
 Frc consts  --      1.7630                 1.7630                 1.8562
 IR Inten    --     13.1152                13.1151                 0.0000

                     70                     71                     72
                      A                      A                      A
 Frequencies --   1447.5781              1459.1118              1462.8454
 Red. masses --      1.5253                 1.3488                 1.3277
 Frc consts  --      1.8832                 1.6919                 1.6739
 IR Inten    --     40.3276                 0.0000                 2.9822

                     73                     74                     75
                      A                      A                      A
 Frequencies --   1514.8840              1515.1522              1521.1081
 Red. masses --      1.0831                 1.0842                 1.0891
 Frc consts  --      1.4645                 1.4664                 1.4846
 IR Inten    --      0.0000                 3.0966                11.2667

                     76                     77                     78
                      A                      A                      A
 Frequencies --   1521.1082              1524.5144              1525.6196
 Red. masses --      1.0891                 1.0856                 1.0843
 Frc consts  --      1.4846                 1.4865                 1.4869
 IR Inten    --     11.2667                 0.0353                 0.0000

                     79                     80                     81
                      A                      A                      A
 Frequencies --   1526.5574              1526.5574              3075.8979
 Red. masses --      1.0837                 1.0837                 1.0588
 Frc consts  --      1.4880                 1.4880                 5.9020
 IR Inten    --      6.0468                 6.0469                 0.0000

                     82                     83                     84
                      A                      A                      A
 Frequencies --   3075.9018              3076.1810              3076.1810
 Red. masses --      1.0588                 1.0584                 1.0584
 Frc consts  --      5.9020                 5.9011                 5.9011
 IR Inten    --      0.0634                37.8324                37.8325

                     85                     86                     87
                      A                      A                      A
 Frequencies --   3089.7898              3090.0027              3090.0028
 Red. masses --      1.0602                 1.0597                 1.0597
 Frc consts  --      5.9637                 5.9613                 5.9613
 IR Inten    --     20.5303                24.4289                24.4289

                     88                     89                     90
                      A                      A                      A
 Frequencies --   3090.3270              3142.5679              3142.5679
 Red. masses --      1.0603                 1.1120                 1.1120
 Frc consts  --      5.9659                 6.4704                 6.4704
 IR Inten    --      0.0000                16.2246                16.2246

                     91                     92                     93
                      A                      A                      A
 Frequencies --   3142.9997              3143.0421              3165.0373
 Red. masses --      1.1135                 1.1135                 1.1111
 Frc consts  --      6.4808                 6.4809                 6.5578
 IR Inten    --     26.0707                 0.0000                 7.2469

                     94                     95                     96
                      A                      A                      A
 Frequencies --   3165.0373              3165.5104              3166.2579
 Red. masses --      1.1111                 1.1124                 1.1118
 Frc consts  --      6.5578                 6.5675                 6.5671
 IR Inten    --      7.2470                 0.0000                 1.3144

 Normal termination of Gaussian 16 at Wed Sep 14 04:05:43 2022.
