 Gaussian 16, Revision B.01,
 Gaussian 16:  ES64L-G16RevB.01 20-Dec-2017

 ----------------------------------------------------------------------
 #T wB97XD/def2svpp opt=tight freq int(grid=ultrafine) scf=(verytight,q
 c)
 ----------------------------------------------------------------------
 --------------
 Comment gs min
 --------------
 Symbolic Z-matrix:
 Charge =  0 Multiplicity = 1

 SCF Done:  E(RwB97XD) =  -616.239249080     a.u. after    7 cycles
 SCF Done:  E(RwB97XD) =  -616.243531080     a.u. after    7 cycles
 SCF Done:  E(RwB97XD) =  -616.243206574     a.u. after    9 cycles
 SCF Done:  E(RwB97XD) =  -616.244225036     a.u. after    6 cycles
 SCF Done:  E(RwB97XD) =  -616.244415081     a.u. after    5 cycles
 SCF Done:  E(RwB97XD) =  -616.244562780     a.u. after    5 cycles
 SCF Done:  E(RwB97XD) =  -616.244610846     a.u. after    5 cycles
 SCF Done:  E(RwB97XD) =  -616.244634936     a.u. after    4 cycles
 SCF Done:  E(RwB97XD) =  -616.244649471     a.u. after    3 cycles
 SCF Done:  E(RwB97XD) =  -616.244653947     a.u. after    2 cycles
 SCF Done:  E(RwB97XD) =  -616.244754238     a.u. after    2 cycles
 SCF Done:  E(RwB97XD) =  -616.244754278     a.u. after    2 cycles
 SCF Done:  E(RwB97XD) =  -616.244754303     a.u. after    2 cycles
 SCF Done:  E(RwB97XD) =  -616.244754320     a.u. after    2 cycles
 SCF Done:  E(RwB97XD) =  -616.244754327     a.u. after    2 cycles
 SCF Done:  E(RwB97XD) =  -616.244754330     a.u. after    2 cycles
 SCF Done:  E(RwB97XD) =  -616.244754330     a.u. after    2 cycles
 SCF Done:  E(RwB97XD) =  -616.244754331     a.u. after    2 cycles
 SCF Done:  E(RwB97XD) =  -616.244754330     a.u. after    2 cycles
 Optimization completed.
    -- Stationary point found.
 Normal termination of Gaussian 16 at Mon Apr  1 17:58:10 2024.

 ---------------------------------------------------------------------
 #T Geom=AllCheck Guess=TCheck SCRF=Check GenChk RwB97XD/def2SVPP Freq
 ---------------------------------------------------------------------
 Structure from the checkpoint file:  "41.chk"
 --------------
 Comment gs min
 --------------
 Charge =  0 Multiplicity = 1

                         Standard orientation:
 ---------------------------------------------------------------------
 Center     Atomic      Atomic             Coordinates (Angstroms)
 Number     Number       Type             X           Y           Z
 ---------------------------------------------------------------------
      1          6           0       -3.949545    1.056394    0.999593
      2          6           0       -3.162409    0.181366    0.017234
      3          6           0       -4.022251   -0.083055   -1.224103
      4          6           0       -1.877923    0.906581   -0.443488
      5          7           0       -0.878942    1.212928    0.570029
      6          6           0       -2.819917   -1.160661    0.722861
      7          7           0       -2.008568   -2.123744    0.016961
      8          1           0       -4.227668    2.023985    0.543010
      9          1           0       -3.369013    1.266447    1.916460
     10          1           0       -4.881536    0.554507    1.315832
     11          1           0       -3.488043   -0.711342   -1.959210
     12          1           0       -4.291494    0.860507   -1.732656
     13          1           0       -4.960882   -0.599962   -0.954281
     14          1           0       -2.161288    1.852731   -0.941371
     15          1           0       -1.381784    0.287697   -1.210594
     16          1           0       -0.536970    0.353132    1.000181
     17          1           0       -1.257031    1.805063    1.308636
     18          1           0       -3.778064   -1.638184    1.007774
     19          1           0       -2.313242   -0.934706    1.680328
     20          1           0       -1.040185   -1.809816   -0.122270
     21          1           0       -2.410372   -2.382607   -0.881903
     22          6           0        4.213997   -0.228123    1.308010
     23          6           0        3.198926   -0.114173    0.165138
     24          6           0        3.812862   -0.647538   -1.132854
     25          6           0        1.946320   -0.940540    0.549405
     26          7           0        0.963497   -1.168100   -0.505523
     27          6           0        2.830542    1.379694   -0.002044
     28          7           0        1.741790    1.624750   -0.940975
     29          1           0        5.088768    0.423695    1.131426
     30          1           0        4.582597   -1.264492    1.410517
     31          1           0        3.764906    0.067158    2.274167
     32          1           0        3.995648   -1.736760   -1.072777
     33          1           0        4.782022   -0.156870   -1.335786
     34          1           0        3.151795   -0.450235   -1.993175
     35          1           0        1.453304   -0.428828    1.399617
     36          1           0        2.264609   -1.924304    0.939351
     37          1           0        1.265930   -1.933300   -1.107497
     38          1           0        0.923428   -0.328922   -1.092613
     39          1           0        3.737064    1.908393   -0.349959
     40          1           0        2.602576    1.789270    1.005762
     41          1           0        0.843314    1.711625   -0.444185
     42          1           0        1.893567    2.475611   -1.476732
 ---------------------------------------------------------------------

 SCF Done:  E(RwB97XD) =  -616.244754330     a.u. after    1 cycles

 The electronic state is 1-A.
 Alpha  occ. eigenvalues --  -14.42565 -14.41099 -14.40095 -14.38532 -10.30878
 Alpha  occ. eigenvalues --  -10.30877 -10.30713 -10.29887 -10.29616 -10.29430
 Alpha  occ. eigenvalues --  -10.28072 -10.27879 -10.27861 -10.27387  -0.98678
 Alpha  occ. eigenvalues --   -0.97824  -0.95117  -0.94594  -0.88331  -0.87924
 Alpha  occ. eigenvalues --   -0.77451  -0.77056  -0.74622  -0.74324  -0.73483
 Alpha  occ. eigenvalues --   -0.73171  -0.62479  -0.62040  -0.60275  -0.58410
 Alpha  occ. eigenvalues --   -0.57051  -0.56236  -0.54489  -0.54033  -0.53445
 Alpha  occ. eigenvalues --   -0.53091  -0.51725  -0.51370  -0.50162  -0.49571
 Alpha  occ. eigenvalues --   -0.47384  -0.46215  -0.45850  -0.45742  -0.45049
 Alpha  occ. eigenvalues --   -0.44743  -0.43864  -0.43381  -0.42342  -0.41692
 Alpha  occ. eigenvalues --   -0.41078  -0.40785  -0.40193  -0.39852  -0.32601
 Alpha  occ. eigenvalues --   -0.32148  -0.29913  -0.28497
 Alpha virt. eigenvalues --    0.11740   0.13345   0.14505   0.15608   0.15954
 Alpha virt. eigenvalues --    0.16786   0.17699   0.18518   0.18727   0.19147
 Alpha virt. eigenvalues --    0.20256   0.20496   0.20860   0.21673   0.22328

 Mulliken charges:
               1
     1  C   -0.282404
     2  C   -0.245932
     3  C   -0.279714
     4  C   -0.054995
     5  N   -0.539881
     6  C   -0.054388
     7  N   -0.541985
     8  H    0.111553
     9  H    0.100711
    10  H    0.118318
    11  H    0.106603
    12  H    0.113027
    13  H    0.114657
    14  H    0.096148
    15  H    0.097486
    16  H    0.261358
    17  H    0.228489
    18  H    0.091309
    19  H    0.085715
    20  H    0.251392
    21  H    0.209922
    22  C   -0.267427
    23  C   -0.237738
    24  C   -0.286963
    25  C   -0.067066
    26  N   -0.530819
    27  C   -0.058065
    28  N   -0.555051
    29  H    0.113140
    30  H    0.114620
    31  H    0.111563
    32  H    0.106810
    33  H    0.107855
    34  H    0.122028
    35  H    0.087690
    36  H    0.101709
    37  H    0.229361
    38  H    0.258514
    39  H    0.088445
    40  H    0.084106
    41  H    0.269667
    42  H    0.220233
 Sum of Mulliken charges =  -0.00000

 Dipole moment (field-independent basis, Debye):
    X=              0.5217    Y=              1.9838    Z=             -0.3038  Tot=              2.0737
  Exact polarizability: 159.260  -0.378 129.347   1.894   1.183 125.534
 Approx polarizability: 145.856  -0.044 140.873   1.164   1.251 140.968
   1 Symmetry operations used in ECPInt.
 ECPInt:  NShTT=    9870 NPrTT=   39606 LenC2=    9388 LenP2D=   26791.
 LDataN:  DoStor=T MaxTD1= 6 Len=  172
 Calling FoFJK, ICntrl=    100127 FMM=F ISym2X=0 I1Cent= 0 IOpClX= 0 NMat=1 NMatS=1 NMatT=0.
 Full mass-weighted force constant matrix:
 Low frequencies ---   -6.1847   -2.7268   -0.0010    0.0005    0.0009    3.4096
 Low frequencies ---   19.5579   33.9705   58.5277
 Diagonal vibrational polarizability:

                      1                      2                      3
                      A                      A                      A
 Frequencies --     19.4835                33.9676                58.5223
 Red. masses --      3.3282                 3.2140                 3.8011
 Frc consts  --      0.0007                 0.0022                 0.0077
 IR Inten    --      0.0630                 0.2889                 0.5349

                      4                      5                      6
                      A                      A                      A
 Frequencies --     74.4526                90.2594               100.1037
 Red. masses --      3.0047                 3.6993                 3.3958
 Frc consts  --      0.0098                 0.0178                 0.0200
 IR Inten    --      1.1015                 0.6543                 0.8941

                      7                      8                      9
                      A                      A                      A
 Frequencies --    129.6343               164.1812               189.4120
 Red. masses --      2.3337                 2.3063                 1.9810
 Frc consts  --      0.0231                 0.0366                 0.0419
 IR Inten    --      6.6477                 5.1694                 3.5832

                     10                     11                     12
                      A                      A                      A
 Frequencies --    205.7195               233.0020               248.8269
 Red. masses --      2.5437                 1.1361                 1.1344
 Frc consts  --      0.0634                 0.0363                 0.0414
 IR Inten    --      2.6049                 0.1677                 2.1642

                     13                     14                     15
                      A                      A                      A
 Frequencies --    257.6054               259.5484               270.4853
 Red. masses --      2.4572                 1.6860                 1.2924
 Frc consts  --      0.0961                 0.0669                 0.0557
 IR Inten    --      2.6096                 6.4317                 2.3508

                     16                     17                     18
                      A                      A                      A
 Frequencies --    274.9613               292.8634               314.3619
 Red. masses --      1.3876                 1.6403                 2.2461
 Frc consts  --      0.0618                 0.0829                 0.1308
 IR Inten    --      1.3775                 1.8089                21.0864

                     19                     20                     21
                      A                      A                      A
 Frequencies --    342.8928               346.4173               354.9561
 Red. masses --      1.7241                 1.7106                 1.9967
 Frc consts  --      0.1194                 0.1209                 0.1482
 IR Inten    --     20.8307                12.9694                11.0562

                     22                     23                     24
                      A                      A                      A
 Frequencies --    379.3903               381.6565               390.8865
 Red. masses --      1.8176                 1.4486                 2.2867
 Frc consts  --      0.1541                 0.1243                 0.2059
 IR Inten    --     15.6580                49.9819                11.8227

                     25                     26                     27
                      A                      A                      A
 Frequencies --    405.5179               413.0310               445.2989
 Red. masses --      2.2983                 1.9923                 1.1961
 Frc consts  --      0.2227                 0.2002                 0.1397
 IR Inten    --      0.4804                 9.2175                39.7753

                     28                     29                     30
                      A                      A                      A
 Frequencies --    463.0021               496.1283               524.5700
 Red. masses --      2.0349                 1.3429                 2.2859
 Frc consts  --      0.2570                 0.1948                 0.3706
 IR Inten    --      8.3748                19.7669                 2.3774

                     31                     32                     33
                      A                      A                      A
 Frequencies --    547.8053               572.1258               739.1056
 Red. masses --      2.3256                 3.2287                 2.6020
 Frc consts  --      0.4112                 0.6227                 0.8375
 IR Inten    --     10.0587                 1.4276                30.1614

                     34                     35                     36
                      A                      A                      A
 Frequencies --    755.8619               840.5334               879.9471
 Red. masses --      2.9327                 1.4116                 1.5353
 Frc consts  --      0.9872                 0.5876                 0.7004
 IR Inten    --      7.6657                19.4332                81.4465

                     37                     38                     39
                      A                      A                      A
 Frequencies --    881.8527               900.2462               902.5965
 Red. masses --      1.5583                 1.4465                 1.5696
 Frc consts  --      0.7140                 0.6907                 0.7534
 IR Inten    --     29.3888                 2.5212                67.4105

                     40                     41                     42
                      A                      A                      A
 Frequencies --    914.4574               928.6083               949.5341
 Red. masses --      1.6087                 1.6523                 1.6000
 Frc consts  --      0.7926                 0.8395                 0.8499
 IR Inten    --     13.0957               108.2931               146.8653

                     43                     44                     45
                      A                      A                      A
 Frequencies --    963.8328               964.3574               980.8222
 Red. masses --      1.3808                 1.3404                 1.4704
 Frc consts  --      0.7558                 0.7345                 0.8334
 IR Inten    --     12.2958                27.1425                19.2751

                     46                     47                     48
                      A                      A                      A
 Frequencies --    985.2855               995.5671              1025.8440
 Red. masses --      1.4732                 1.5694                 1.3400
 Frc consts  --      0.8427                 0.9165                 0.8309
 IR Inten    --     18.4429                47.8153               184.7333

                     49                     50                     51
                      A                      A                      A
 Frequencies --   1031.0732              1046.2124              1121.9382
 Red. masses --      1.3321                 1.5349                 1.5323
 Frc consts  --      0.8344                 0.9898                 1.1364
 IR Inten    --     30.0695               145.6284                 5.7690

                     52                     53                     54
                      A                      A                      A
 Frequencies --   1133.2812              1147.9639              1152.3350
 Red. masses --      1.9890                 2.1810                 2.4890
 Frc consts  --      1.5051                 1.6934                 1.9473
 IR Inten    --      6.4154                15.2598                 7.2150

                     55                     56                     57
                      A                      A                      A
 Frequencies --   1173.4425              1174.7956              1181.3051
 Red. masses --      2.7447                 1.6027                 1.3813
 Frc consts  --      2.2268                 1.3032                 1.1357
 IR Inten    --     13.2593                 4.2136                 1.3594

                     58                     59                     60
                      A                      A                      A
 Frequencies --   1193.3219              1229.0357              1257.6081
 Red. masses --      1.4166                 2.6289                 2.5974
 Frc consts  --      1.1886                 2.3396                 2.4204
 IR Inten    --      2.6196                 4.8310                 5.0507

                     61                     62                     63
                      A                      A                      A
 Frequencies --   1285.7686              1300.8755              1311.5713
 Red. masses --      1.8045                 2.2640                 2.0642
 Frc consts  --      1.7577                 2.2573                 2.0921
 IR Inten    --      4.4336                 0.5914                 0.7584

                     64                     65                     66
                      A                      A                      A
 Frequencies --   1327.6672              1379.8903              1386.1717
 Red. masses --      1.8952                 1.2243                 1.2370
 Frc consts  --      1.9683                 1.3735                 1.4005
 IR Inten    --      3.7559                 3.3157                 6.2626

                     67                     68                     69
                      A                      A                      A
 Frequencies --   1392.2102              1405.2880              1407.9583
 Red. masses --      1.2107                 1.3818                 1.2649
 Frc consts  --      1.3826                 1.6078                 1.4773
 IR Inten    --      8.9322                 1.2924                 3.6651

                     70                     71                     72
                      A                      A                      A
 Frequencies --   1412.7927              1414.1250              1416.5147
 Red. masses --      1.3349                 1.2651                 1.2805
 Frc consts  --      1.5699                 1.4906                 1.5138
 IR Inten    --      4.0387                 6.1857                 1.4701

                     73                     74                     75
                      A                      A                      A
 Frequencies --   1417.9202              1422.7914              1433.2825
 Red. masses --      1.3171                 1.2506                 1.2816
 Frc consts  --      1.5602                 1.4915                 1.5512
 IR Inten    --      0.9106                 3.9127                22.6836

                     76                     77                     78
                      A                      A                      A
 Frequencies --   1446.6592              1477.4362              1478.0565
 Red. masses --      1.3351                 1.0895                 1.0895
 Frc consts  --      1.6463                 1.4012                 1.4024
 IR Inten    --     26.8118                 1.5350                 3.9327

                     79                     80                     81
                      A                      A                      A
 Frequencies --   1480.1622              1481.6766              1484.7862
 Red. masses --      1.0841                 1.0694                 1.0452
 Frc consts  --      1.3993                 1.3832                 1.3577
 IR Inten    --      0.4297                 2.4006                 1.3922

                     82                     83                     84
                      A                      A                      A
 Frequencies --   1486.7658              1490.2976              1496.6587
 Red. masses --      1.0596                 1.0673                 1.0775
 Frc consts  --      1.3800                 1.3966                 1.4221
 IR Inten    --      3.3492                 7.7214                 5.1331

                     85                     86                     87
                      A                      A                      A
 Frequencies --   1499.7638              1499.9146              1510.8591
 Red. masses --      1.0727                 1.0672                 1.0645
 Frc consts  --      1.4216                 1.4146                 1.4317
 IR Inten    --     15.6929                 6.9021                 8.8229

                     88                     89                     90
                      A                      A                      A
 Frequencies --   1511.2791              1652.5745              1681.3522
 Red. masses --      1.0666                 1.1003                 1.0842
 Frc consts  --      1.4353                 1.7704                 1.8059
 IR Inten    --     30.5783                22.0536                23.6732

                     91                     92                     93
                      A                      A                      A
 Frequencies --   1713.7709              1716.7211              2972.5976
 Red. masses --      1.0861                 1.0811                 1.0693
 Frc consts  --      1.8794                 1.8772                 5.5671
 IR Inten    --     12.0595                13.4308                56.3069

                     94                     95                     96
                      A                      A                      A
 Frequencies --   3012.6809              3013.9285              3017.6690
 Red. masses --      1.0605                 1.0602                 1.0385
 Frc consts  --      5.6712                 5.6739                 5.5718
 IR Inten    --     13.9494                43.2381                28.4414

                     97                     98                     99
                      A                      A                      A
 Frequencies --   3018.2285              3021.3419              3023.0747
 Red. masses --      1.0406                 1.0408                 1.0410
 Frc consts  --      5.5852                 5.5976                 5.6054
 IR Inten    --     71.6991                33.2296                18.6141

                    100                    101                    102
                      A                      A                      A
 Frequencies --   3040.7636              3065.0974              3067.2987
 Red. masses --      1.0656                 1.0984                 1.1044
 Frc consts  --      5.8050                 6.0802                 6.1217
 IR Inten    --     32.4568                39.5458                36.4864

                    103                    104                    105
                      A                      A                      A
 Frequencies --   3078.6757              3104.2315              3105.8153
 Red. masses --      1.1024                 1.1043                 1.1032
 Frc consts  --      6.1561                 6.2697                 6.2700
 IR Inten    --     31.4793                12.9597                14.1487

                    106                    107                    108
                      A                      A                      A
 Frequencies --   3106.2732              3108.0656              3108.4348
 Red. masses --      1.1040                 1.1038                 1.1041
 Frc consts  --      6.2760                 6.2826                 6.2855
 IR Inten    --     17.5407                36.9127                12.7422

                    109                    110                    111
                      A                      A                      A
 Frequencies --   3111.6496              3113.0427              3113.6095
 Red. masses --      1.1035                 1.1043                 1.1036
 Frc consts  --      6.2948                 6.3052                 6.3036
 IR Inten    --     40.6426                35.7915                37.8108

                    112                    113                    114
                      A                      A                      A
 Frequencies --   3132.7061              3355.6633              3400.3857
 Red. masses --      1.1029                 1.0673                 1.0632
 Frc consts  --      6.3770                 7.0811                 7.2429
 IR Inten    --     15.2987               304.4288               357.3747

                    115                    116                    117
                      A                      A                      A
 Frequencies --   3450.2789              3503.6900              3557.4884
 Red. masses --      1.0572                 1.0503                 1.0873
 Frc consts  --      7.4148                 7.5965                 8.1076
 IR Inten    --     47.5082                 2.8127                20.1387

                    118                    119                    120
                      A                      A                      A
 Frequencies --   3573.4594              3578.0449              3591.4467
 Red. masses --      1.0845                 1.0817                 1.0939
 Frc consts  --      8.1595                 8.1589                 8.3135
 IR Inten    --     26.2831                24.6774                 9.1406

 Optimization completed.
    -- Stationary point found.
 Normal termination of Gaussian 16 at Mon Apr  1 18:09:28 2024.
