 Gaussian 16, Revision B.01,
 Gaussian 16:  ES64L-G16RevB.01 20-Dec-2017

 ----------------------------------------------------------------------
 #T wB97XD/def2svpp opt=tight freq int(grid=ultrafine) scf=(verytight,q
 c)
 ----------------------------------------------------------------------
 --------------
 Comment gs min
 --------------
 Symbolic Z-matrix:
 Charge =  0 Multiplicity = 1

 SCF Done:  E(RwB97XD) =  -957.504726972     a.u. after    8 cycles
 SCF Done:  E(RwB97XD) =  -957.511993286     a.u. after    9 cycles
 SCF Done:  E(RwB97XD) =  -957.513570683     a.u. after   10 cycles
 SCF Done:  E(RwB97XD) =  -957.513964618     a.u. after   10 cycles
 SCF Done:  E(RwB97XD) =  -957.515705920     a.u. after    9 cycles
 SCF Done:  E(RwB97XD) =  -957.516522695     a.u. after   10 cycles
 SCF Done:  E(RwB97XD) =  -957.516738633     a.u. after    9 cycles
 SCF Done:  E(RwB97XD) =  -957.516835947     a.u. after    7 cycles
 SCF Done:  E(RwB97XD) =  -957.516870719     a.u. after    5 cycles
 SCF Done:  E(RwB97XD) =  -957.516889856     a.u. after    4 cycles
 SCF Done:  E(RwB97XD) =  -957.516903864     a.u. after    3 cycles
 SCF Done:  E(RwB97XD) =  -957.516904721     a.u. after    3 cycles
 SCF Done:  E(RwB97XD) =  -957.516904801     a.u. after    2 cycles
 SCF Done:  E(RwB97XD) =  -957.516904859     a.u. after    2 cycles
 SCF Done:  E(RwB97XD) =  -957.516904889     a.u. after    2 cycles
 SCF Done:  E(RwB97XD) =  -957.516904893     a.u. after    2 cycles
 SCF Done:  E(RwB97XD) =  -957.516904892     a.u. after    2 cycles
 SCF Done:  E(RwB97XD) =  -957.516904890     a.u. after    2 cycles
 SCF Done:  E(RwB97XD) =  -957.516904893     a.u. after    2 cycles
 Optimization completed.
    -- Stationary point found.
 Normal termination of Gaussian 16 at Thu Aug  4 16:30:27 2022.

 ---------------------------------------------------------------------
 #T Geom=AllCheck Guess=TCheck SCRF=Check GenChk RwB97XD/def2SVPP Freq
 ---------------------------------------------------------------------
 Structure from the checkpoint file:  "/scratch/user/peterchao1/peterchao1/6097786_1659647558000000851228230/Gau-150157.chk"
 --------------
 Comment gs min
 --------------
 Charge =  0 Multiplicity = 1

                         Standard orientation:
 ---------------------------------------------------------------------
 Center     Atomic      Atomic             Coordinates (Angstroms)
 Number     Number       Type             X           Y           Z
 ---------------------------------------------------------------------
      1          8           0        1.725840   -1.591182    0.849925
      2          6           0        1.567820   -0.183749    0.842863
      3          6           0        0.371942    0.201448   -0.040427
      4          6           0        0.230304    1.740291   -0.022022
      5          8           0        1.408393    2.412897   -0.401703
      6          6           0        0.609067   -0.289086   -1.486130
      7          8           0        0.593667   -1.683388   -1.617320
      8          6           0       -0.883427   -0.461431    0.542546
      9          8           0       -1.020204   -0.114993    1.866951
     10         17           0       -2.392541    0.024456   -0.390357
     11          1           0        2.482347   -1.828229    1.400825
     12          1           0        2.469399    0.300719    0.421999
     13          1           0        1.404416    0.192940    1.870128
     14          1           0       -0.117256    2.061180    0.977724
     15          1           0       -0.546896    2.030217   -0.745114
     16          1           0        1.959460    2.563515    0.375441
     17          1           0        1.562729    0.153632   -1.838740
     18          1           0       -0.191237    0.099248   -2.136056
     19          1           0        1.190531   -2.044979   -0.941404
     20          1           0       -0.835731   -1.548194    0.387354
     21          1           0       -1.740376   -0.627309    2.260103
 ---------------------------------------------------------------------

 SCF Done:  E(RwB97XD) =  -957.516904893     a.u. after    1 cycles

 The electronic state is 1-A.
 Alpha  occ. eigenvalues -- -101.65200 -19.28613 -19.28269 -19.25924 -19.22973
 Alpha  occ. eigenvalues --  -10.40358 -10.35681 -10.34185 -10.32769 -10.31842
 Alpha  occ. eigenvalues --   -9.56014  -7.31338  -7.30464  -7.30422  -1.16130
 Alpha  occ. eigenvalues --   -1.14261  -1.12173  -1.09632  -0.93687  -0.89132
 Alpha  occ. eigenvalues --   -0.78161  -0.76273  -0.75731  -0.66071  -0.65236
 Alpha  occ. eigenvalues --   -0.62584  -0.61408  -0.58583  -0.56761  -0.54576
 Alpha  occ. eigenvalues --   -0.53113  -0.51537  -0.50320  -0.48869  -0.48497
 Alpha  occ. eigenvalues --   -0.46320  -0.44218  -0.42315  -0.40051  -0.39296
 Alpha  occ. eigenvalues --   -0.38218  -0.37581  -0.36770  -0.35399  -0.33614
 Alpha virt. eigenvalues --    0.10388   0.12022   0.12670   0.13481   0.18435
 Alpha virt. eigenvalues --    0.18678   0.20298   0.20874   0.21940   0.22500
 Alpha virt. eigenvalues --    0.23953   0.24703   0.26849   0.28229   0.30072

 Mulliken charges:
               1
     1  O   -0.505310
     2  C    0.029647
     3  C   -0.350948
     4  C    0.044508
     5  O   -0.482532
     6  C    0.094824
     7  O   -0.499600
     8  C    0.132109
     9  O   -0.423666
    10  Cl  -0.173912
    11  H    0.333089
    12  H    0.101219
    13  H    0.113790
    14  H    0.119304
    15  H    0.123033
    16  H    0.321581
    17  H    0.103882
    18  H    0.110077
    19  H    0.326654
    20  H    0.147512
    21  H    0.334742
 Sum of Mulliken charges =  -0.00000

 Dipole moment (field-independent basis, Debye):
    X=              2.6593    Y=             -0.3205    Z=              4.6389  Tot=              5.3567
  Exact polarizability:  79.659  -0.654  67.893   5.366  -1.811  70.369
 Approx polarizability:  84.842  -0.801  75.029   7.888  -2.243  79.995
   1 Symmetry operations used in ECPInt.
 ECPInt:  NShTT=    3570 NPrTT=   14708 LenC2=    3518 LenP2D=   11081.
 LDataN:  DoStor=T MaxTD1= 6 Len=  172
 Calling FoFJK, ICntrl=    100127 FMM=F ISym2X=0 I1Cent= 0 IOpClX= 0 NMat=1 NMatS=1 NMatT=0.
 Full mass-weighted force constant matrix:
 Low frequencies ---   -8.1611   -6.1263   -0.0011    0.0021    0.0035    1.9825
 Low frequencies ---   66.3574   88.2742  105.4319
 Diagonal vibrational polarizability:

                      1                      2                      3
                      A                      A                      A
 Frequencies --     66.3441                88.2244               105.4304
 Red. masses --      4.4321                 4.7296                 4.9054
 Frc consts  --      0.0115                 0.0217                 0.0321
 IR Inten    --      3.4872                 1.2085                 2.1705

                      4                      5                      6
                      A                      A                      A
 Frequencies --    150.5820               187.1004               211.4272
 Red. masses --      5.5056                 6.8339                 2.5279
 Frc consts  --      0.0736                 0.1410                 0.0666
 IR Inten    --     12.5612                 6.5529                 7.4323

                      7                      8                      9
                      A                      A                      A
 Frequencies --    250.0315               263.6838               290.1053
 Red. masses --      5.2754                 4.1039                 1.2096
 Frc consts  --      0.1943                 0.1681                 0.0600
 IR Inten    --     10.7895                 6.5855                64.1049

                     10                     11                     12
                      A                      A                      A
 Frequencies --    315.9832               335.3585               353.5709
 Red. masses --      1.1260                 3.4737                 2.1222
 Frc consts  --      0.0662                 0.2302                 0.1563
 IR Inten    --    131.1178                 9.6043                11.4793

                     13                     14                     15
                      A                      A                      A
 Frequencies --    375.9788               383.7743               435.9803
 Red. masses --      2.2834                 2.2673                 3.1207
 Frc consts  --      0.1902                 0.1967                 0.3495
 IR Inten    --     38.7780                45.0034                25.4310

                     16                     17                     18
                      A                      A                      A
 Frequencies --    505.2410               583.8143               614.2670
 Red. masses --      3.3716                 1.3287                 3.3932
 Frc consts  --      0.5071                 0.2668                 0.7543
 IR Inten    --     61.0228               110.7904                79.3699

                     19                     20                     21
                      A                      A                      A
 Frequencies --    627.8900               725.4576               804.9137
 Red. masses --      3.1359                 4.4379                 3.6876
 Frc consts  --      0.7284                 1.3761                 1.4076
 IR Inten    --     61.5708                35.6496                39.1490

                     22                     23                     24
                      A                      A                      A
 Frequencies --    915.7362               948.3231               990.0332
 Red. masses --      1.6510                 1.7790                 1.5180
 Frc consts  --      0.8157                 0.9426                 0.8766
 IR Inten    --     14.3958                17.5865                 7.4001

                     25                     26                     27
                      A                      A                      A
 Frequencies --   1103.1851              1116.0747              1136.5896
 Red. masses --      3.9046                 2.4910                 4.8799
 Frc consts  --      2.7998                 1.8281                 3.7142
 IR Inten    --     52.4422                13.8777                81.2676

                     28                     29                     30
                      A                      A                      A
 Frequencies --   1154.4731              1166.4972              1180.8947
 Red. masses --      2.6097                 2.6561                 2.6830
 Frc consts  --      2.0493                 2.1294                 2.2044
 IR Inten    --     33.5166               127.5053                26.1424

                     31                     32                     33
                      A                      A                      A
 Frequencies --   1205.0284              1254.8074              1257.9869
 Red. masses --      1.6052                 1.3957                 1.1791
 Frc consts  --      1.3733                 1.2948                 1.0994
 IR Inten    --    114.8542               106.0420                12.2041

                     34                     35                     36
                      A                      A                      A
 Frequencies --   1285.3228              1311.9397              1329.1477
 Red. masses --      1.2251                 1.2678                 1.3177
 Frc consts  --      1.1924                 1.2856                 1.3716
 IR Inten    --     35.4503                37.0717                12.4742

                     37                     38                     39
                      A                      A                      A
 Frequencies --   1344.8867              1397.8842              1415.9990
 Red. masses --      1.6173                 1.3496                 1.2143
 Frc consts  --      1.7235                 1.5538                 1.4345
 IR Inten    --     40.4754                 0.5548                 9.6915

                     40                     41                     42
                      A                      A                      A
 Frequencies --   1431.2892              1452.0326              1469.1955
 Red. masses --      1.3304                 1.5907                 1.4157
 Frc consts  --      1.6058                 1.9760                 1.8005
 IR Inten    --     13.6222                28.6896                16.2864

                     43                     44                     45
                      A                      A                      A
 Frequencies --   1480.9269              1511.2692              1513.2332
 Red. masses --      1.2712                 1.0891                 1.0815
 Frc consts  --      1.6426                 1.4656                 1.4591
 IR Inten    --     57.0547                 3.5613                16.7753

                     46                     47                     48
                      A                      A                      A
 Frequencies --   1534.9191              3014.5764              3022.6531
 Red. masses --      1.0954                 1.0690                 1.0592
 Frc consts  --      1.5206                 5.7238                 5.7019
 IR Inten    --      4.9166                28.3790                55.8846

                     49                     50                     51
                      A                      A                      A
 Frequencies --   3048.2685              3078.8692              3121.5382
 Red. masses --      1.0680                 1.1102                 1.0983
 Frc consts  --      5.8471                 6.2004                 6.3056
 IR Inten    --     22.4765                31.4261                16.5845

                     52                     53                     54
                      A                      A                      A
 Frequencies --   3141.5446              3143.5838              3690.2210
 Red. masses --      1.1023                 1.0894                 1.0654
 Frc consts  --      6.4095                 6.3430                 8.5481
 IR Inten    --     13.0991                 5.1447               142.0546

                     55                     56                     57
                      A                      A                      A
 Frequencies --   3768.2597              3793.3332              3801.0393
 Red. masses --      1.0662                 1.0667                 1.0669
 Frc consts  --      8.9199                 9.0431                 9.0816
 IR Inten    --     73.5060                55.6027                41.0928

 Optimization completed.
    -- Stationary point found.
 Normal termination of Gaussian 16 at Thu Aug  4 16:33:39 2022.
