 Gaussian 16, Revision B.01,
 Gaussian 16:  ES64L-G16RevB.01 20-Dec-2017

 --------------------------------------------------------------
 #T wB97XD//def2svpp Volume=tight Geom=AllCheckpoint Guess=Read
 --------------------------------------------------------------
 Structure from the checkpoint file:  "19.chk"
 -----
 Dimer
 -----
 Charge =  0 Multiplicity = 1

                         Standard orientation:
 ---------------------------------------------------------------------
 Center     Atomic      Atomic             Coordinates (Angstroms)
 Number     Number       Type             X           Y           Z
 ---------------------------------------------------------------------
      1          8           0        2.158748    0.130236    0.932013
      2          6           0        0.827791    0.007470    1.287093
      3          6           0       -0.125378    0.012775    0.077636
      4         17           0       -1.798625   -0.148337    0.665527
      5         17           0        0.049358    1.510482   -0.858892
      6         17           0        0.274263   -1.390650   -0.972043
      7          1           0        2.414086   -0.635203    0.395399
      8          1           0        0.567708    0.873784    1.914846
      9          1           0        0.608802   -0.917347    1.857218
 ---------------------------------------------------------------------

 SCF Done:  E(RwB97XD) =  -1533.20626227     A.U. after    1 cycles

 The electronic state is 1-A.
 Alpha  occ. eigenvalues -- -101.70261-101.70066-101.69513 -19.27716 -10.47799
 Alpha  occ. eigenvalues --  -10.37851  -9.61092  -9.60913  -9.60361  -7.36501
 Alpha  occ. eigenvalues --   -7.36341  -7.35802  -7.35485  -7.35450  -7.35278
 Alpha  occ. eigenvalues --   -7.35273  -7.34726  -7.34705  -1.15113  -1.04788
 Alpha  occ. eigenvalues --   -0.94251  -0.93915  -0.83040  -0.70433  -0.63672
 Alpha  occ. eigenvalues --   -0.59270  -0.59089  -0.54573  -0.52544  -0.45556
 Alpha  occ. eigenvalues --   -0.44086  -0.43914  -0.41789  -0.40939  -0.40245
 Alpha  occ. eigenvalues --   -0.39021  -0.38320
 Alpha virt. eigenvalues --    0.05704   0.08608   0.09321   0.14198   0.17292
 Alpha virt. eigenvalues --    0.20314   0.23994   0.28002   0.48167   0.48852
 Alpha virt. eigenvalues --    0.50518   0.53238   0.53885   0.55838   0.61765

 Mulliken charges:
               1
     1  O   -0.459333
     2  C    0.107108
     3  C   -0.108326
     4  Cl  -0.036778
     5  Cl  -0.026048
     6  Cl  -0.064047
     7  H    0.321687
     8  H    0.140062
     9  H    0.125677
 Sum of Mulliken charges =  -0.00000

 Dipole moment (field-independent basis, Debye):
    X=              0.1672    Y=             -1.1312    Z=              0.6781  Tot=              1.3295
 Evaluate density.
 Using the total density.
 Monte-Carlo method of calculating molar volume:
 based on  0.001 e/bohr**3 density envelope.
 Number of points per bohr**3 =  100 CutOff= 1.00D-04
 Using the SCF density.
 There are      2055 points.  Will hold      2055 in memory.
 LenV=  1048334701 MDV=  1048576000.
 Box volume = 8683.086 fraction occupied=0.104
 Integrated density= 4.5209581522659377D+01 error=-2.8790418477340623D+01

 1\1\GINC-C340\SP\RwB97XD\def2SVPP\C2H3Cl3O1\PETERCHAO1\03-Feb-2023\0\\
 #T wB97XD//def2svpp Volume=tight Geom=AllCheckpoint Guess=Read\\Dimer\
 \0,1\O,0,-2.1619442541,-0.0657336213,1.0529790813\C,0,-0.8153651016,0.
 0080016124,1.3593923997\C,0,0.0917999499,-0.0169418725,0.1152965832\Cl
 ,0,1.7901368948,0.0810357324,0.6419644951\Cl,0,-0.16868607,-1.49790116
 17,-0.8279157566\Cl,0,-0.2978611568,1.4102271871,-0.9057292481\H,0,-2.
 4104669957,0.713546487,0.5333572778\H,0,-0.5622051472,-0.8732112373,1.
 9689752958\H,0,-0.543870172,0.9187895403,1.9295165243\\Version=ES64L-G

 Normal termination of Gaussian 16 at Fri Feb  3 12:53:37 2023.
