 Gaussian 16, Revision B.01,
 Gaussian 16:  ES64L-G16RevB.01 20-Dec-2017

 ----------------------------------------------------------------------
 #T wB97XD/def2svpp opt=tight freq int(grid=ultrafine) scf=(verytight,q
 c)
 ----------------------------------------------------------------------
 -----
 dimer
 -----
 Symbolic Z-matrix:
 Charge =  0 Multiplicity = 1

 SCF Done:  E(RwB97XD) =  -1144.11752238     a.u. after    8 cycles
 SCF Done:  E(RwB97XD) =  -1144.11740127     a.u. after   11 cycles
 SCF Done:  E(RwB97XD) =  -1144.11630053     a.u. after    9 cycles
 SCF Done:  E(RwB97XD) =  -1144.11466687     a.u. after    9 cycles
 SCF Done:  E(RwB97XD) =  -1144.11825339     a.u. after    2 cycles
 SCF Done:  E(RwB97XD) =  -1144.11950683     a.u. after    9 cycles
 SCF Done:  E(RwB97XD) =  -1144.12061301     a.u. after    9 cycles
 SCF Done:  E(RwB97XD) =  -1144.12046260     a.u. after    9 cycles
 SCF Done:  E(RwB97XD) =  -1144.11928082     a.u. after   10 cycles
 SCF Done:  E(RwB97XD) =  -1144.11890546     a.u. after    7 cycles
 SCF Done:  E(RwB97XD) =  -1144.12092821     a.u. after    2 cycles
 SCF Done:  E(RwB97XD) =  -1144.12092831     a.u. after    2 cycles
 SCF Done:  E(RwB97XD) =  -1144.12092836     a.u. after    2 cycles
 SCF Done:  E(RwB97XD) =  -1144.12092843     a.u. after    2 cycles
 SCF Done:  E(RwB97XD) =  -1144.12092845     a.u. after    2 cycles
 SCF Done:  E(RwB97XD) =  -1144.12092847     a.u. after    2 cycles
 SCF Done:  E(RwB97XD) =  -1144.12092847     a.u. after    2 cycles
 SCF Done:  E(RwB97XD) =  -1144.12092847     a.u. after    2 cycles
 SCF Done:  E(RwB97XD) =  -1144.12092847     a.u. after    2 cycles
 Optimization completed.
    -- Stationary point found.
 Normal termination of Gaussian 16 at Tue Aug  9 18:42:06 2022.

 ---------------------------------------------------------------------
 #T Geom=AllCheck Guess=TCheck SCRF=Check GenChk RwB97XD/def2SVPP Freq
 ---------------------------------------------------------------------
 Structure from the checkpoint file:  "/scratch/user/peterchao1/peterchao1/6113349_1660079137000000544897868/Gau-162357.chk"
 -----
 dimer
 -----
 Charge =  0 Multiplicity = 1

                         Standard orientation:
 ---------------------------------------------------------------------
 Center     Atomic      Atomic             Coordinates (Angstroms)
 Number     Number       Type             X           Y           Z
 ---------------------------------------------------------------------
      1          8           0        2.956915   -2.228307   -0.534687
      2          6           0        3.635781   -0.985512   -0.502024
      3          6           0        2.710997    0.158799   -0.044306
      4          6           0        2.297129   -0.072908    1.434892
      5          8           0        1.807411   -1.372130    1.664526
      6          6           0        3.458258    1.506777   -0.155327
      7          8           0        2.779087    2.571103    0.431310
      8          6           0        1.447322    0.230015   -0.903330
      9          8           0        1.049848   -0.851196   -1.528110
     10          8           0        0.806594    1.266651   -0.995127
     11          1           0        2.577159   -2.339576    0.370734
     12          1           0        4.016007   -0.801383   -1.521189
     13          1           0        4.507466   -1.038663    0.176529
     14          1           0        1.565761    0.692342    1.741520
     15          1           0        3.202776    0.060668    2.052449
     16          1           0        0.826671   -1.372138    1.570690
     17          1           0        3.688577    1.699729   -1.225049
     18          1           0        4.422948    1.411490    0.372548
     19          1           0        1.907264    2.615003    0.003143
     20          1           0        1.664709   -1.616988   -1.301275
     21          8           0       -2.956936    2.228309    0.534651
     22          6           0       -3.635790    0.985506    0.502009
     23          6           0       -2.710998   -0.158802    0.044307
     24          6           0       -3.458248   -1.506786    0.155344
     25          8           0       -2.779066   -2.571116   -0.431271
     26          6           0       -2.297133    0.072891   -1.434894
     27          8           0       -1.807401    1.372105   -1.664539
     28          6           0       -1.447322   -0.229997    0.903333
     29          8           0       -1.049862    0.851226    1.528102
     30          8           0       -0.806583   -1.266623    0.995142
     31          1           0       -2.577175    2.339568   -0.370768
     32          1           0       -4.507477    1.038639   -0.176544
     33          1           0       -4.016014    0.801391    1.521177
     34          1           0       -4.422935   -1.411514   -0.372539
     35          1           0       -3.688574   -1.699721    1.225067
     36          1           0       -1.907244   -2.615002   -0.003100
     37          1           0       -3.202786   -0.060672   -2.052444
     38          1           0       -1.565779   -0.692372   -1.741523
     39          1           0       -0.826661    1.372113   -1.570683
     40          1           0       -1.664731    1.617007    1.301254
 ---------------------------------------------------------------------

 SCF Done:  E(RwB97XD) =  -1144.12092847     a.u. after    1 cycles

 The electronic state is 1-A.
 Alpha  occ. eigenvalues --  -19.31614 -19.31612 -19.28740 -19.28740 -19.27997
 Alpha  occ. eigenvalues --  -19.27995 -19.26740 -19.26740 -19.25212 -19.25212
 Alpha  occ. eigenvalues --  -10.46160 -10.46159 -10.37253 -10.37253 -10.35982
 Alpha  occ. eigenvalues --  -10.35982 -10.35920 -10.35919 -10.34087 -10.34087
 Alpha  occ. eigenvalues --   -1.23054  -1.22753  -1.15993  -1.15672  -1.14125
 Alpha  occ. eigenvalues --   -1.13731  -1.12448  -1.12235  -1.11799  -1.11702
 Alpha  occ. eigenvalues --   -0.92545  -0.92373  -0.79078  -0.78908  -0.77638
 Alpha  occ. eigenvalues --   -0.77537  -0.75441  -0.74691  -0.72752  -0.72611
 Alpha  occ. eigenvalues --   -0.66440  -0.65998  -0.64432  -0.63292  -0.62019
 Alpha  occ. eigenvalues --   -0.61808  -0.59594  -0.58106  -0.58105  -0.57140
 Alpha  occ. eigenvalues --   -0.56925  -0.56558  -0.55758  -0.55616  -0.54780
 Alpha  occ. eigenvalues --   -0.54400  -0.53471  -0.53367  -0.51913  -0.51830
 Alpha  occ. eigenvalues --   -0.50030  -0.49637  -0.49031  -0.49013  -0.47770
 Alpha  occ. eigenvalues --   -0.47730  -0.45240  -0.44201  -0.43670  -0.42707
 Alpha  occ. eigenvalues --   -0.42201  -0.41717  -0.39883  -0.39740  -0.38537
 Alpha  occ. eigenvalues --   -0.38157  -0.37473  -0.37139  -0.35855  -0.35745
 Alpha virt. eigenvalues --    0.04990   0.05521   0.12468   0.13033   0.14252
 Alpha virt. eigenvalues --    0.14667   0.15672   0.15749   0.16898   0.16999
 Alpha virt. eigenvalues --    0.18566   0.19076   0.21042   0.21047   0.21705

 Mulliken charges:
               1
     1  O   -0.519070
     2  C    0.058323
     3  C   -0.462738
     4  C    0.079843
     5  O   -0.541295
     6  C    0.097363
     7  O   -0.486199
     8  C    0.336856
     9  O   -0.346762
    10  O   -0.342391
    11  H    0.352797
    12  H    0.131583
    13  H    0.124446
    14  H    0.147338
    15  H    0.117417
    16  H    0.350832
    17  H    0.102789
    18  H    0.108653
    19  H    0.334973
    20  H    0.355241
    21  O   -0.519070
    22  C    0.058322
    23  C   -0.462738
    24  C    0.097363
    25  O   -0.486198
    26  C    0.079844
    27  O   -0.541295
    28  C    0.336856
    29  O   -0.346761
    30  O   -0.342392
    31  H    0.352798
    32  H    0.124445
    33  H    0.131584
    34  H    0.108653
    35  H    0.102789
    36  H    0.334972
    37  H    0.117416
    38  H    0.147338
    39  H    0.350832
    40  H    0.355240
 Sum of Mulliken charges =  -0.00000

 Dipole moment (field-independent basis, Debye):
    X=             -0.0000    Y=             -0.0000    Z=              0.0000  Tot=              0.0001
  Exact polarizability: 150.786  -3.347 129.066   4.994   2.298 113.013
 Approx polarizability: 147.003  -6.893 157.489   6.481   4.689 130.907
   1 Symmetry operations used in ECPInt.
 ECPInt:  NShTT=   12880 NPrTT=   51680 LenC2=   12091 LenP2D=   33201.
 LDataN:  DoStor=T MaxTD1= 6 Len=  172
 Calling FoFJK, ICntrl=    100127 FMM=F ISym2X=0 I1Cent= 0 IOpClX= 0 NMat=1 NMatS=1 NMatT=0.
 Full mass-weighted force constant matrix:
 Low frequencies ---   -4.7033    0.0006    0.0006    0.0011    4.5316    8.7131
 Low frequencies ---   31.7020   44.3598   51.6084
 Diagonal vibrational polarizability:

                      1                      2                      3
                      A                      A                      A
 Frequencies --     31.7020                44.3598                51.5806
 Red. masses --      6.2129                 7.1616                 8.4609
 Frc consts  --      0.0037                 0.0083                 0.0133
 IR Inten    --      0.5267                 0.3523                 0.0000

                      4                      5                      6
                      A                      A                      A
 Frequencies --     75.4753                91.4106               101.6365
 Red. masses --      7.1963                 9.9536                 5.7367
 Frc consts  --      0.0242                 0.0490                 0.0349
 IR Inten    --      0.0000                 0.0000                 9.2215

                      7                      8                      9
                      A                      A                      A
 Frequencies --    108.9282               136.1929               161.9592
 Red. masses --      5.3022                 9.2261                 4.4811
 Frc consts  --      0.0371                 0.1008                 0.0693
 IR Inten    --      0.0000                 0.2605                 0.0000

                     10                     11                     12
                      A                      A                      A
 Frequencies --    165.1246               184.9836               204.4321
 Red. masses --      3.6809                 6.5132                 5.6228
 Frc consts  --      0.0591                 0.1313                 0.1385
 IR Inten    --     13.0447                 9.6574                 0.0000

                     13                     14                     15
                      A                      A                      A
 Frequencies --    209.7004               213.8792               264.5972
 Red. masses --      3.0437                 2.6642                 3.9182
 Frc consts  --      0.0789                 0.0718                 0.1616
 IR Inten    --      0.0000                 9.5539                12.1953

                     16                     17                     18
                      A                      A                      A
 Frequencies --    264.8571               291.1957               293.0038
 Red. masses --      3.4058                 2.4868                 2.3154
 Frc consts  --      0.1408                 0.1242                 0.1171
 IR Inten    --      0.0002                 0.0000                10.3204

                     19                     20                     21
                      A                      A                      A
 Frequencies --    304.3938               307.3247               315.9232
 Red. masses --      4.8051                 5.4056                 6.2704
 Frc consts  --      0.2623                 0.3008                 0.3687
 IR Inten    --     24.4479                 0.0000                 0.0000

                     22                     23                     24
                      A                      A                      A
 Frequencies --    322.1415               375.2877               386.3538
 Red. masses --      6.9603                 2.7337                 2.9170
 Frc consts  --      0.4256                 0.2268                 0.2565
 IR Inten    --     44.4784                 0.0000                 7.9848

                     25                     26                     27
                      A                      A                      A
 Frequencies --    409.1870               412.0932               419.1680
 Red. masses --      6.8226                 7.1254                 5.6209
 Frc consts  --      0.6730                 0.7129                 0.5819
 IR Inten    --      0.0000                24.6935                 0.0000

                     28                     29                     30
                      A                      A                      A
 Frequencies --    419.6753               482.3976               490.2722
 Red. masses --      5.6419                 5.9633                 5.9643
 Frc consts  --      0.5855                 0.8176                 0.8447
 IR Inten    --      5.7880                72.2966                 0.0000

                     31                     32                     33
                      A                      A                      A
 Frequencies --    576.7207               582.1407               605.5603
 Red. masses --      1.9212                 1.9976                 1.6094
 Frc consts  --      0.3765                 0.3989                 0.3477
 IR Inten    --     83.0743                 0.0000               262.0064

                     34                     35                     36
                      A                      A                      A
 Frequencies --    606.7946               681.1774               685.6421
 Red. masses --      1.5819                 2.9857                 3.4974
 Frc consts  --      0.3432                 0.8162                 0.9687
 IR Inten    --      0.0000                 0.0000                49.0686

                     37                     38                     39
                      A                      A                      A
 Frequencies --    753.6465               754.6243               798.6316
 Red. masses --      1.1195                 1.1972                 2.9233
 Frc consts  --      0.3746                 0.4017                 1.0985
 IR Inten    --    177.5603                 0.0004                 0.0000

                     40                     41                     42
                      A                      A                      A
 Frequencies --    798.9907               806.5426               808.3216
 Red. masses --      5.8063                 4.4978                 5.0277
 Frc consts  --      2.1839                 1.7239                 1.9355
 IR Inten    --      4.6303                 7.2366                 0.0000

                     43                     44                     45
                      A                      A                      A
 Frequencies --    833.1806               849.7736               897.5283
 Red. masses --      1.1718                 1.3788                 2.1524
 Frc consts  --      0.4793                 0.5866                 1.0216
 IR Inten    --    372.2235                 0.0000                 0.0000

                     46                     47                     48
                      A                      A                      A
 Frequencies --    898.1047               970.9389               971.8443
 Red. masses --      2.1547                 1.6167                 1.6188
 Frc consts  --      1.0240                 0.8979                 0.9008
 IR Inten    --     83.3756                37.3887                 0.0000

                     49                     50                     51
                      A                      A                      A
 Frequencies --   1000.7382              1001.1611              1080.4586
 Red. masses --      1.4438                 1.4463                 3.0780
 Frc consts  --      0.8519                 0.8541                 2.1171
 IR Inten    --      8.9604                 0.0000               302.1830

                     52                     53                     54
                      A                      A                      A
 Frequencies --   1080.5431              1101.3601              1104.1395
 Red. masses --      3.6490                 2.0168                 1.8908
 Frc consts  --      2.5102                 1.4414                 1.3581
 IR Inten    --      0.0156                98.6278                 0.0000

                     55                     56                     57
                      A                      A                      A
 Frequencies --   1131.0162              1133.7988              1153.6438
 Red. masses --      4.9102                 4.9989                 2.3200
 Frc consts  --      3.7007                 3.7861                 1.8192
 IR Inten    --      0.0000                19.9242                 0.0028

                     58                     59                     60
                      A                      A                      A
 Frequencies --   1153.7942              1171.5591              1172.5024
 Red. masses --      2.4378                 1.8371                 1.8027
 Frc consts  --      1.9120                 1.4856                 1.4601
 IR Inten    --    126.8285                 0.0000               122.9277

                     61                     62                     63
                      A                      A                      A
 Frequencies --   1187.0720              1187.1194              1201.1037
 Red. masses --      4.0535                 3.8474                 2.6709
 Frc consts  --      3.3654                 3.1946                 2.2702
 IR Inten    --     90.4655                 0.0009               116.8648

                     64                     65                     66
                      A                      A                      A
 Frequencies --   1201.7443              1254.6661              1255.3156
 Red. masses --      2.7533                 1.0868                 1.0979
 Frc consts  --      2.3427                 1.0080                 1.0193
 IR Inten    --      0.0000                 0.0000                25.9455

                     67                     68                     69
                      A                      A                      A
 Frequencies --   1276.1783              1278.3434              1322.8283
 Red. masses --      1.2009                 1.1873                 1.8260
 Frc consts  --      1.1524                 1.1431                 1.8826
 IR Inten    --      0.0000                44.9271                 0.0000

                     70                     71                     72
                      A                      A                      A
 Frequencies --   1327.6679              1372.0074              1374.6637
 Red. masses --      1.7292                 1.8587                 1.7514
 Frc consts  --      1.7959                 2.0614                 1.9500
 IR Inten    --     14.2609                48.2050                 0.0000

                     73                     74                     75
                      A                      A                      A
 Frequencies --   1386.2184              1386.3788              1411.1863
 Red. masses --      1.2959                 1.3343                 1.3107
 Frc consts  --      1.4672                 1.5111                 1.5379
 IR Inten    --      8.2978                 0.0000                 8.4134

                     76                     77                     78
                      A                      A                      A
 Frequencies --   1411.1929              1438.2286              1441.2159
 Red. masses --      1.3076                 1.5066                 1.4726
 Frc consts  --      1.5343                 1.8362                 1.8022
 IR Inten    --      0.0118                 0.0000                73.7921

                     79                     80                     81
                      A                      A                      A
 Frequencies --   1468.1498              1472.3880              1479.6675
 Red. masses --      1.2420                 1.2459                 1.1678
 Frc consts  --      1.5773                 1.5914                 1.5064
 IR Inten    --      0.0000               160.6769                17.4298

                     82                     83                     84
                      A                      A                      A
 Frequencies --   1479.6829              1494.7660              1496.7157
 Red. masses --      1.1661                 1.0845                 1.0826
 Frc consts  --      1.5043                 1.4277                 1.4289
 IR Inten    --      0.0359                35.8062                 0.0000

                     85                     86                     87
                      A                      A                      A
 Frequencies --   1505.2841              1506.4347              1514.2118
 Red. masses --      1.1495                 1.1434                 1.1206
 Frc consts  --      1.5345                 1.5288                 1.5138
 IR Inten    --      0.0000                12.6364                22.4181

                     88                     89                     90
                      A                      A                      A
 Frequencies --   1515.0245              1526.1982              1528.3874
 Red. masses --      1.1107                 1.1218                 1.1246
 Frc consts  --      1.5020                 1.5395                 1.5479
 IR Inten    --      0.0000                57.7826                 0.0000

                     91                     92                     93
                      A                      A                      A
 Frequencies --   1541.0680              1552.6807              1809.1945
 Red. masses --      1.5290                 1.5854                 7.5782
 Frc consts  --      2.1394                 2.2519                14.6147
 IR Inten    --      0.0000               807.2790                 0.0000

                     94                     95                     96
                      A                      A                      A
 Frequencies --   1833.8358              2989.6633              2989.7223
 Red. masses --      8.1319                 1.0702                 1.0702
 Frc consts  --     16.1125                 5.6357                 5.6359
 IR Inten    --    766.1636                 0.0091               112.2603

                     97                     98                     99
                      A                      A                      A
 Frequencies --   3019.8183              3020.0591              3047.1871
 Red. masses --      1.0712                 1.0703                 1.0660
 Frc consts  --      5.7553                 5.7516                 5.8319
 IR Inten    --      0.1723              1429.3128                 0.0001

                    100                    101                    102
                      A                      A                      A
 Frequencies --   3048.1373              3060.8622              3060.8926
 Red. masses --      1.0665                 1.0634                 1.0631
 Frc consts  --      5.8385                 5.8701                 5.8684
 IR Inten    --    219.5156                69.8469                 0.0012

                    103                    104                    105
                      A                      A                      A
 Frequencies --   3093.1314              3093.1494              3113.1212
 Red. masses --      1.0978                 1.0976                 1.1077
 Frc consts  --      6.1880                 6.1874                 6.3249
 IR Inten    --     73.1438                 0.0025                 0.0000

                    106                    107                    108
                      A                      A                      A
 Frequencies --   3113.2396              3136.7899              3136.9739
 Red. masses --      1.1076                 1.1089                 1.1089
 Frc consts  --      6.3251                 6.4283                 6.4291
 IR Inten    --     46.1164                20.1884                 0.0004

                    109                    110                    111
                      A                      A                      A
 Frequencies --   3407.5760              3417.7049              3454.2076
 Red. masses --      1.0682                 1.0668                 1.0657
 Frc consts  --      7.3080                 7.3421                 7.4918
 IR Inten    --      0.0000              1749.7126                 0.0000

                    112                    113                    114
                      A                      A                      A
 Frequencies --   3461.7269              3695.9138              3695.9769
 Red. masses --      1.0663                 1.0645                 1.0645
 Frc consts  --      7.5288                 8.5670                 8.5674
 IR Inten    --   1002.8160               236.4585                 0.1722

 Optimization completed.
    -- Stationary point found.
 Normal termination of Gaussian 16 at Tue Aug  9 19:01:13 2022.
