 Gaussian 16, Revision B.01,
 Gaussian 16:  ES64L-G16RevB.01 20-Dec-2017

 ----------------------------------------------------------------------
 #T wB97XD/def2svpp opt=tight freq int(grid=ultrafine) scf=(verytight,q
 c)
 ----------------------------------------------------------------------
 --------------
 Comment gs min
 --------------
 Symbolic Z-matrix:
 Charge =  0 Multiplicity = 1

 SCF Done:  E(RwB97XD) =  -512.809059288     a.u. after    8 cycles
 SCF Done:  E(RwB97XD) =  -512.815750996     a.u. after   11 cycles
 SCF Done:  E(RwB97XD) =  -512.805785770     a.u. after   21 cycles
 SCF Done:  E(RwB97XD) =  -512.815617434     a.u. after   11 cycles
 SCF Done:  E(RwB97XD) =  -512.816267245     a.u. after    2 cycles
 SCF Done:  E(RwB97XD) =  -512.816217980     a.u. after    8 cycles
 SCF Done:  E(RwB97XD) =  -512.816423242     a.u. after    6 cycles
 SCF Done:  E(RwB97XD) =  -512.816428895     a.u. after    5 cycles
 SCF Done:  E(RwB97XD) =  -512.816440626     a.u. after    4 cycles
 SCF Done:  E(RwB97XD) =  -512.816442360     a.u. after    3 cycles
 SCF Done:  E(RwB97XD) =  -512.816442642     a.u. after    2 cycles
 SCF Done:  E(RwB97XD) =  -512.816442669     a.u. after    2 cycles
 SCF Done:  E(RwB97XD) =  -512.816442669     a.u. after    2 cycles
 SCF Done:  E(RwB97XD) =  -512.816442667     a.u. after    2 cycles
 SCF Done:  E(RwB97XD) =  -512.816442666     a.u. after    2 cycles
 SCF Done:  E(RwB97XD) =  -512.816442674     a.u. after    2 cycles
 SCF Done:  E(RwB97XD) =  -512.816442666     a.u. after    2 cycles
 Optimization completed.
    -- Stationary point found.
 Normal termination of Gaussian 16 at Thu Aug  4 16:24:23 2022.

 ---------------------------------------------------------------------
 #T Geom=AllCheck Guess=TCheck SCRF=Check GenChk RwB97XD/def2SVPP Freq
 ---------------------------------------------------------------------
 Structure from the checkpoint file:  "/scratch/user/peterchao1/peterchao1/6097809_1659647584000000817307740/Gau-201497.chk"
 --------------
 Comment gs min
 --------------
 Charge =  0 Multiplicity = 1

                         Standard orientation:
 ---------------------------------------------------------------------
 Center     Atomic      Atomic             Coordinates (Angstroms)
 Number     Number       Type             X           Y           Z
 ---------------------------------------------------------------------
      1          6           0       -0.114437    0.364855    1.664584
      2          6           0        0.049641    0.039042    0.191392
      3          6           0       -0.565106   -1.331331   -0.175043
      4          8           0       -1.963285   -1.337032   -0.004194
      5          6           0       -0.544652    1.154991   -0.709788
      6          8           0       -1.877224    1.416612   -0.400768
      7          7           0        1.522615   -0.055828   -0.160759
      8          8           0        2.341391    0.202839    0.689013
      9          8           0        1.782417   -0.379632   -1.300966
     10          1           0       -1.186179    0.494172    1.882245
     11          1           0        0.389592    1.309046    1.919326
     12          1           0        0.302412   -0.430704    2.303701
     13          1           0       -0.081174   -2.129179    0.421265
     14          1           0       -0.375998   -1.538949   -1.237623
     15          1           0       -2.178773   -1.427561    0.934136
     16          1           0       -0.403760    0.860442   -1.767939
     17          1           0        0.020107    2.087456   -0.540663
     18          1           0       -2.363607    0.578431   -0.480683
 ---------------------------------------------------------------------

 SCF Done:  E(RwB97XD) =  -512.816442666     a.u. after    1 cycles

 The electronic state is 1-A.
 Alpha  occ. eigenvalues --  -19.29873 -19.29731 -19.29487 -19.25896 -14.68726
 Alpha  occ. eigenvalues --  -10.37528 -10.37352 -10.35999 -10.31016  -1.34436
 Alpha  occ. eigenvalues --   -1.16617  -1.16170  -1.12674  -0.95622  -0.81296
 Alpha  occ. eigenvalues --   -0.80045  -0.78066  -0.67158  -0.66542  -0.64757
 Alpha  occ. eigenvalues --   -0.62589  -0.61346  -0.59821  -0.56428  -0.55535
 Alpha  occ. eigenvalues --   -0.51929  -0.51655  -0.49081  -0.47907  -0.46322
 Alpha  occ. eigenvalues --   -0.44189  -0.40759  -0.40012  -0.38931  -0.38466
 Alpha  occ. eigenvalues --   -0.36512
 Alpha virt. eigenvalues --    0.00371   0.09787   0.14472   0.16263   0.17315
 Alpha virt. eigenvalues --    0.17848   0.18614   0.19800   0.21225   0.23789
 Alpha virt. eigenvalues --    0.25272   0.27635   0.28007   0.29086   0.30422

 Mulliken charges:
               1
     1  C   -0.258230
     2  C   -0.265193
     3  C    0.052708
     4  O   -0.488915
     5  C    0.094681
     6  O   -0.485480
     7  N    0.243761
     8  O   -0.232993
     9  O   -0.249640
    10  H    0.127720
    11  H    0.148604
    12  H    0.133468
    13  H    0.122476
    14  H    0.148218
    15  H    0.336686
    16  H    0.122949
    17  H    0.119858
    18  H    0.329321
 Sum of Mulliken charges =  -0.00000

 Dipole moment (field-independent basis, Debye):
    X=             -2.2530    Y=             -1.6373    Z=              1.9288  Tot=              3.3878
  Exact polarizability:  63.527   0.642  53.897   1.001   2.405  63.499
 Approx polarizability:  70.462   1.417  58.515   3.976   6.432  79.547
   1 Symmetry operations used in ECPInt.
 ECPInt:  NShTT=    2628 NPrTT=   10584 LenC2=    2600 LenP2D=    8234.
 LDataN:  DoStor=T MaxTD1= 6 Len=  172
 Calling FoFJK, ICntrl=    100127 FMM=F ISym2X=0 I1Cent= 0 IOpClX= 0 NMat=1 NMatS=1 NMatT=0.
 Full mass-weighted force constant matrix:
 Low frequencies ---   -6.5142   -5.9966   -0.0012   -0.0007   -0.0002    4.0401
 Low frequencies ---   44.1464  122.9615  164.4480
 Diagonal vibrational polarizability:

                      1                      2                      3
                      A                      A                      A
 Frequencies --     44.1221               122.9598               164.4475
 Red. masses --     10.3121                 2.5027                 3.4218
 Frc consts  --      0.0118                 0.0223                 0.0545
 IR Inten    --      0.2487                 6.7404                 4.3141

                      4                      5                      6
                      A                      A                      A
 Frequencies --    206.4354               239.7657               251.7733
 Red. masses --      5.3219                 6.0125                 1.0911
 Frc consts  --      0.1336                 0.2036                 0.0408
 IR Inten    --      6.8918                 5.5170                 6.3819

                      7                      8                      9
                      A                      A                      A
 Frequencies --    328.8987               334.8296               361.7065
 Red. masses --      2.9818                 3.8240                 1.7446
 Frc consts  --      0.1900                 0.2526                 0.1345
 IR Inten    --     30.0594                 3.2580                38.5192

                     10                     11                     12
                      A                      A                      A
 Frequencies --    390.7004               419.3764               461.0526
 Red. masses --      1.5028                 4.6570                 2.9564
 Frc consts  --      0.1352                 0.4826                 0.3703
 IR Inten    --     99.8332                16.9211                20.9792

                     13                     14                     15
                      A                      A                      A
 Frequencies --    547.0527               620.0849               754.3484
 Red. masses --      4.5392                 1.1179                 9.7077
 Frc consts  --      0.8004                 0.2533                 3.2547
 IR Inten    --      6.7356               145.9050                 1.3003

                     16                     17                     18
                      A                      A                      A
 Frequencies --    767.3149               809.8358               919.5086
 Red. masses --      3.2831                 3.2776                 4.0088
 Frc consts  --      1.1389                 1.2665                 1.9970
 IR Inten    --     13.0356                 9.4366                43.1897

                     19                     20                     21
                      A                      A                      A
 Frequencies --    959.7730               994.6857              1015.7853
 Red. masses --      1.3317                 1.7008                 1.7588
 Frc consts  --      0.7228                 0.9915                 1.0692
 IR Inten    --      8.5015                 4.3908                11.5593

                     22                     23                     24
                      A                      A                      A
 Frequencies --   1130.3397              1142.5167              1170.4951
 Red. masses --      4.7603                 2.5559                 2.1602
 Frc consts  --      3.5834                 1.9657                 1.7437
 IR Inten    --     67.6096                 4.6929               144.8987

                     25                     26                     27
                      A                      A                      A
 Frequencies --   1172.2511              1212.5689              1293.3038
 Red. masses --      1.7540                 1.6081                 1.9546
 Frc consts  --      1.4201                 1.3931                 1.9262
 IR Inten    --     33.8384                 2.0755                17.2927

                     28                     29                     30
                      A                      A                      A
 Frequencies --   1339.0329              1388.2989              1407.8857
 Red. masses --      1.8475                 1.2481                 1.1882
 Frc consts  --      1.9517                 1.4173                 1.3877
 IR Inten    --      6.8897                 1.6797                19.8021

                     31                     32                     33
                      A                      A                      A
 Frequencies --   1413.6333              1438.7300              1469.3628
 Red. masses --      1.4029                 1.4740                 1.2764
 Frc consts  --      1.6517                 1.7977                 1.6237
 IR Inten    --     22.4275                17.4741               105.2952

                     34                     35                     36
                      A                      A                      A
 Frequencies --   1481.9945              1493.1228              1508.0620
 Red. masses --      1.0801                 1.0600                 1.1228
 Frc consts  --      1.3977                 1.3924                 1.5045
 IR Inten    --     24.4172                24.4423                19.8741

                     37                     38                     39
                      A                      A                      A
 Frequencies --   1511.9694              1525.5297              1758.7231
 Red. masses --      4.5286                 1.0934                14.0052
 Frc consts  --      6.0995                 1.4992                25.5232
 IR Inten    --     37.4238                 0.9362               279.6224

                     40                     41                     42
                      A                      A                      A
 Frequencies --   3032.6487              3035.8188              3060.7692
 Red. masses --      1.0644                 1.0707                 1.0381
 Frc consts  --      5.7676                 5.8141                 5.7299
 IR Inten    --     30.8393                29.5828                 6.7871

                     43                     44                     45
                      A                      A                      A
 Frequencies --   3112.1090              3158.4558              3159.9784
 Red. masses --      1.1056                 1.1059                 1.1006
 Frc consts  --      6.3091                 6.5000                 6.4752
 IR Inten    --     18.3745                 5.1437                 4.9513

                     46                     47                     48
                      A                      A                      A
 Frequencies --   3169.5428              3686.4037              3774.8907
 Red. masses --      1.1042                 1.0653                 1.0663
 Frc consts  --      6.5359                 8.5299                 8.9527
 IR Inten    --      3.2890               129.3140                49.8378

 Optimization completed.
    -- Stationary point found.
 Normal termination of Gaussian 16 at Thu Aug  4 16:26:18 2022.
