 Gaussian 16, Revision B.01,
 Gaussian 16:  ES64L-G16RevB.01 20-Dec-2017

 ----------------------------------------------------------------------
 #T wB97XD/def2svpp opt=tight freq int(grid=ultrafine) scf=(verytight,q
 c) Volume=tight
 ----------------------------------------------------------------------
 -----
 Dimer
 -----
 Symbolic Z-matrix:
 Charge =  0 Multiplicity = 1

 SCF Done:  E(RwB97XD) =  -427.119314236     a.u. after    7 cycles
 SCF Done:  E(RwB97XD) =  -427.123348576     a.u. after   11 cycles
 SCF Done:  E(RwB97XD) =  -427.121443341     a.u. after   13 cycles
 SCF Done:  E(RwB97XD) =  -427.123233190     a.u. after   11 cycles
 SCF Done:  E(RwB97XD) =  -427.123794690     a.u. after    4 cycles
 SCF Done:  E(RwB97XD) =  -427.124059619     a.u. after    6 cycles
 SCF Done:  E(RwB97XD) =  -427.124194379     a.u. after    6 cycles
 SCF Done:  E(RwB97XD) =  -427.124256744     a.u. after    7 cycles
 SCF Done:  E(RwB97XD) =  -427.124289384     a.u. after    4 cycles
 SCF Done:  E(RwB97XD) =  -427.124356496     a.u. after    5 cycles
 SCF Done:  E(RwB97XD) =  -427.124477896     a.u. after    2 cycles
 SCF Done:  E(RwB97XD) =  -427.124478072     a.u. after    2 cycles
 SCF Done:  E(RwB97XD) =  -427.124478189     a.u. after    2 cycles
 SCF Done:  E(RwB97XD) =  -427.124478212     a.u. after    2 cycles
 SCF Done:  E(RwB97XD) =  -427.124478218     a.u. after    2 cycles
 SCF Done:  E(RwB97XD) =  -427.124478220     a.u. after    2 cycles
 SCF Done:  E(RwB97XD) =  -427.124478220     a.u. after    2 cycles
 SCF Done:  E(RwB97XD) =  -427.124478220     a.u. after    2 cycles
 SCF Done:  E(RwB97XD) =  -427.124478220     a.u. after    2 cycles
 Optimization completed.
    -- Stationary point found.

 1\1\GINC-C153\FOpt\RwB97XD\def2SVPP\C8H22N2\PETERCHAO1\01-Apr-2024\0\\
 #T wB97XD/def2svpp opt=tight freq int(grid=ultrafine) scf=(verytight,q
 c) Volume=tight\\Dimer\\0,1\C,-2.1592592382,0.7575991607,1.3231862882\
 C,-2.9989062674,0.172524635,0.186897066\C,-3.8406579185,1.2550694883,-
 0.4899857426\C,-2.1274486393,-0.5673251869,-0.8479099238\N,-1.39386611
 43,-1.7282688762,-0.3862022441\H,-2.7974909559,1.2104274489,2.10273296
 74\H,-1.487653994,1.5488573038,0.9384960194\H,-1.5282525467,-0.0117451
 02,1.7996934919\H,-3.6892750559,-0.5775500634,0.6224031922\H,-4.486772

 Normal termination of Gaussian 16 at Mon Apr  1 15:39:44 2024.

 ---------------------------------------------------------------------
 #T Geom=AllCheck Guess=TCheck SCRF=Check GenChk RwB97XD/def2SVPP Freq
 ---------------------------------------------------------------------
 Structure from the checkpoint file:  "dimer.chk"
 -----
 Dimer
 -----
 Charge =  0 Multiplicity = 1

                         Standard orientation:
 ---------------------------------------------------------------------
 Center     Atomic      Atomic             Coordinates (Angstroms)
 Number     Number       Type             X           Y           Z
 ---------------------------------------------------------------------
      1          6           0        2.224762   -0.055870    1.439587
      2          6           0        3.019195    0.001948    0.134211
      3          6           0        3.884444   -1.246902   -0.039963
      4          6           0        2.100610    0.203775   -1.087717
      5          7           0        1.336159    1.433178   -1.145079
      6          1           0        2.894806   -0.114032    2.315796
      7          1           0        1.573723   -0.950870    1.455508
      8          1           0        1.576988    0.828955    1.560392
      9          1           0        3.691503    0.882107    0.181200
     10          1           0        4.498458   -1.188578   -0.956333
     11          1           0        3.253438   -2.152281   -0.116610
     12          1           0        4.567668   -1.387859    0.816151
     13          1           0        1.390136   -0.644763   -1.136625
     14          1           0        2.717169    0.134162   -2.004212
     15          1           0        1.954790    2.243803   -1.125631
     16          1           0        0.681648    1.512116   -0.359574
     17          6           0       -3.940586    0.553368   -0.131187
     18          6           0       -2.881604   -0.465045    0.293343
     19          6           0       -3.061223   -1.791528   -0.446316
     20          6           0       -1.453839    0.067191    0.084401
     21          7           0       -1.091684    1.287896    0.788616
     22          1           0       -4.959435    0.159086    0.027010
     23          1           0       -3.837590    0.801321   -1.204195
     24          1           0       -3.860049    1.492379    0.444007
     25          1           0       -3.006760   -0.657362    1.377681
     26          1           0       -4.064630   -2.216806   -0.270554
     27          1           0       -2.315774   -2.538260   -0.120174
     28          1           0       -2.941336   -1.651382   -1.536455
     29          1           0       -1.277214    0.243078   -0.993247
     30          1           0       -0.734055   -0.715368    0.386084
     31          1           0       -1.214156    1.189405    1.796336
     32          1           0       -1.651200    2.082002    0.480526
 ---------------------------------------------------------------------

 SCF Done:  E(RwB97XD) =  -427.124478220     a.u. after    1 cycles

 The electronic state is 1-A.
 Alpha  occ. eigenvalues --  -14.42700 -14.38521 -10.31262 -10.29814 -10.29375
 Alpha  occ. eigenvalues --  -10.28561 -10.28317 -10.28210 -10.27274 -10.27023
 Alpha  occ. eigenvalues --   -0.98236  -0.94935  -0.88492  -0.86706  -0.77667
 Alpha  occ. eigenvalues --   -0.76247  -0.74892  -0.72746  -0.65634  -0.63913
 Alpha  occ. eigenvalues --   -0.59489  -0.56814  -0.55148  -0.53557  -0.53138
 Alpha  occ. eigenvalues --   -0.52093  -0.51654  -0.49678  -0.47674  -0.46563
 Alpha  occ. eigenvalues --   -0.46145  -0.45300  -0.44967  -0.43958  -0.42942
 Alpha  occ. eigenvalues --   -0.42022  -0.41739  -0.40675  -0.40047  -0.39164
 Alpha  occ. eigenvalues --   -0.32403  -0.28794
 Alpha virt. eigenvalues --    0.12086   0.14304   0.14698   0.15727   0.17114
 Alpha virt. eigenvalues --    0.17666   0.19261   0.19706   0.20308   0.21118
 Alpha virt. eigenvalues --    0.21578   0.21911   0.22899   0.23198   0.23752

 Mulliken charges:
               1
     1  C   -0.320187
     2  C   -0.203582
     3  C   -0.301300
     4  C   -0.071790
     5  N   -0.544243
     6  H    0.112393
     7  H    0.106660
     8  H    0.117555
     9  H    0.077683
    10  H    0.114432
    11  H    0.106094
    12  H    0.114401
    13  H    0.086472
    14  H    0.093102
    15  H    0.205514
    16  H    0.265087
    17  C   -0.313885
    18  C   -0.185601
    19  C   -0.303893
    20  C   -0.118812
    21  N   -0.514433
    22  H    0.122805
    23  H    0.115074
    24  H    0.103592
    25  H    0.083434
    26  H    0.120008
    27  H    0.118782
    28  H    0.115257
    29  H    0.121307
    30  H    0.116224
    31  H    0.227131
    32  H    0.234717
 Sum of Mulliken charges =  -0.00000

 Dipole moment (field-independent basis, Debye):
    X=             -1.4204    Y=              0.2289    Z=              1.6955  Tot=              2.2237
  Exact polarizability: 115.148  -1.541  99.689  -0.494   0.645  94.806
 Approx polarizability: 105.154   0.227 105.594  -1.015  -0.254 102.989
   1 Symmetry operations used in ECPInt.
 ECPInt:  NShTT=    5460 NPrTT=   21932 LenC2=    5283 LenP2D=   15548.
 LDataN:  DoStor=T MaxTD1= 6 Len=  172
 Calling FoFJK, ICntrl=    100127 FMM=F ISym2X=0 I1Cent= 0 IOpClX= 0 NMat=1 NMatS=1 NMatT=0.
 Full mass-weighted force constant matrix:
 Low frequencies ---   -8.6659   -0.7542    0.0002    0.0008    0.0013    2.4986
 Low frequencies ---   21.9220   30.2354   34.6403
 Diagonal vibrational polarizability:

                      1                      2                      3
                      A                      A                      A
 Frequencies --     21.6705                30.2128                34.6074
 Red. masses --      2.5271                 3.2695                 2.5457
 Frc consts  --      0.0007                 0.0018                 0.0018
 IR Inten    --      0.4588                 0.5611                 0.3319

                      4                      5                      6
                      A                      A                      A
 Frequencies --     49.2956                77.1055               121.4364
 Red. masses --      3.4804                 3.7228                 2.0247
 Frc consts  --      0.0050                 0.0130                 0.0176
 IR Inten    --      1.8163                 0.4438                 1.6286

                      7                      8                      9
                      A                      A                      A
 Frequencies --    123.1014               179.9567               228.9841
 Red. masses --      2.7657                 2.0979                 1.0808
 Frc consts  --      0.0247                 0.0400                 0.0334
 IR Inten    --      0.0750                 0.3099                 0.0901

                     10                     11                     12
                      A                      A                      A
 Frequencies --    229.8094               255.4125               262.7092
 Red. masses --      1.1139                 1.0825                 1.2079
 Frc consts  --      0.0347                 0.0416                 0.0491
 IR Inten    --      0.7335                 2.9256                 3.7623

                     13                     14                     15
                      A                      A                      A
 Frequencies --    285.4348               287.5524               345.6996
 Red. masses --      1.9201                 2.3065                 1.3286
 Frc consts  --      0.0922                 0.1124                 0.0935
 IR Inten    --      1.6177                 7.4430                37.1932

                     16                     17                     18
                      A                      A                      A
 Frequencies --    365.9142               372.1538               407.5160
 Red. masses --      2.1449                 2.0515                 1.6476
 Frc consts  --      0.1692                 0.1674                 0.1612
 IR Inten    --      1.3381                 5.3718                 9.5716

                     19                     20                     21
                      A                      A                      A
 Frequencies --    442.9198               472.1645               488.1175
 Red. masses --      1.6879                 1.5460                 2.5775
 Frc consts  --      0.1951                 0.2031                 0.3618
 IR Inten    --      6.4205                31.7938                 5.4341

                     22                     23                     24
                      A                      A                      A
 Frequencies --    518.4775               802.8891               820.3986
 Red. masses --      1.9539                 1.9885                 2.2992
 Frc consts  --      0.3095                 0.7552                 0.9117
 IR Inten    --     22.3653                54.5922                17.0307

                     25                     26                     27
                      A                      A                      A
 Frequencies --    870.6824               875.7313               897.5855
 Red. masses --      1.2868                 1.2939                 1.5243
 Frc consts  --      0.5747                 0.5847                 0.7236
 IR Inten    --      7.0758                 7.4718               159.1251

                     28                     29                     30
                      A                      A                      A
 Frequencies --    937.0732               941.9542               945.7096
 Red. masses --      1.1884                 1.2194                 1.4531
 Frc consts  --      0.6149                 0.6375                 0.7657
 IR Inten    --     68.3012                 0.6670               112.3908

                     31                     32                     33
                      A                      A                      A
 Frequencies --    964.6585               967.2573               983.0705
 Red. masses --      1.5352                 1.6770                 1.4270
 Frc consts  --      0.8417                 0.9244                 0.8125
 IR Inten    --     61.1074                15.3748                 3.2244

                     34                     35                     36
                      A                      A                      A
 Frequencies --    984.0041              1080.7650              1103.5852
 Red. masses --      1.4705                 1.2111                 1.2519
 Frc consts  --      0.8389                 0.8335                 0.8983
 IR Inten    --      1.7150                 1.5911                14.5115

                     37                     38                     39
                      A                      A                      A
 Frequencies --   1137.1354              1145.3682              1176.3863
 Red. masses --      3.2959                 2.7960                 2.2271
 Frc consts  --      2.5110                 2.1611                 1.8159
 IR Inten    --     19.7820                13.2500                 1.1700

                     40                     41                     42
                      A                      A                      A
 Frequencies --   1182.3000              1209.3663              1210.2772
 Red. masses --      2.3410                 1.7072                 1.7097
 Frc consts  --      1.9280                 1.4711                 1.4755
 IR Inten    --      2.8908                 0.1567                 0.0773

                     43                     44                     45
                      A                      A                      A
 Frequencies --   1247.2341              1256.4356              1337.7188
 Red. masses --      1.6835                 1.5515                 1.2697
 Frc consts  --      1.5430                 1.4431                 1.3386
 IR Inten    --      0.4863                 1.9837                 7.5473

                     46                     47                     48
                      A                      A                      A
 Frequencies --   1341.9448              1373.7387              1374.9675
 Red. masses --      1.2658                 1.3528                 1.3492
 Frc consts  --      1.3430                 1.5042                 1.5029
 IR Inten    --      4.1698                 0.5648                 0.5449

                     49                     50                     51
                      A                      A                      A
 Frequencies --   1403.6370              1406.6128              1409.8302
 Red. masses --      1.2241                 1.3346                 1.3833
 Frc consts  --      1.4210                 1.5557                 1.6200
 IR Inten    --      1.8365                10.5062                 4.6038

                     52                     53                     54
                      A                      A                      A
 Frequencies --   1414.2242              1420.4510              1422.7272
 Red. masses --      1.1990                 1.3777                 1.3801
 Frc consts  --      1.4129                 1.6378                 1.6459
 IR Inten    --      3.3700                 1.5457                 7.5389

                     55                     56                     57
                      A                      A                      A
 Frequencies --   1430.1509              1430.9845              1476.4288
 Red. masses --      1.3222                 1.3106                 1.0907
 Frc consts  --      1.5934                 1.5812                 1.4008
 IR Inten    --      5.8222                10.6686                 0.1658

                     58                     59                     60
                      A                      A                      A
 Frequencies --   1481.2034              1483.2943              1485.8582
 Red. masses --      1.0634                 1.0467                 1.0546
 Frc consts  --      1.3745                 1.3568                 1.3718
 IR Inten    --      0.5711                 1.5991                 2.1633

                     61                     62                     63
                      A                      A                      A
 Frequencies --   1490.9507              1492.5034              1499.0657
 Red. masses --      1.0630                 1.0715                 1.0569
 Frc consts  --      1.3923                 1.4062                 1.3993
 IR Inten    --      9.8900                 0.9641                 9.2366

                     64                     65                     66
                      A                      A                      A
 Frequencies --   1499.5780              1505.4467              1508.2891
 Red. masses --      1.0621                 1.0575                 1.0571
 Frc consts  --      1.4072                 1.4121                 1.4169
 IR Inten    --      7.8966                25.2145                20.3399

                     67                     68                     69
                      A                      A                      A
 Frequencies --   1667.1591              1705.3656              3011.5429
 Red. masses --      1.0996                 1.0891                 1.0738
 Frc consts  --      1.8008                 1.8662                 5.7379
 IR Inten    --     29.4883                20.2257                10.8618

                     70                     71                     72
                      A                      A                      A
 Frequencies --   3015.7481              3016.5058              3017.8652
 Red. masses --      1.0671                 1.0841                 1.0403
 Frc consts  --      5.7182                 5.8122                 5.5823
 IR Inten    --     34.0952                30.9755                30.1364

                     73                     74                     75
                      A                      A                      A
 Frequencies --   3021.6838              3021.9591              3024.1643
 Red. masses --      1.0428                 1.0387                 1.0390
 Frc consts  --      5.6100                 5.5887                 5.5984
 IR Inten    --     19.9123                50.6048                14.1874

                     76                     77                     78
                      A                      A                      A
 Frequencies --   3038.2424              3070.0747              3095.2669
 Red. masses --      1.0624                 1.1065                 1.1068
 Frc consts  --      5.7779                 6.1449                 6.2478
 IR Inten    --     30.2978                48.4642                21.4126

                     79                     80                     81
                      A                      A                      A
 Frequencies --   3103.0993              3108.4138              3111.7482
 Red. masses --      1.1029                 1.1029                 1.1044
 Frc consts  --      6.2574                 6.2785                 6.3005
 IR Inten    --     13.9931                60.1964                10.1414

                     82                     83                     84
                      A                      A                      A
 Frequencies --   3114.7453              3117.2592              3120.5628
 Red. masses --      1.1033                 1.1047                 1.1048
 Frc consts  --      6.3064                 6.3247                 6.3389
 IR Inten    --     41.7814                29.0083                 9.9247

                     85                     86                     87
                      A                      A                      A
 Frequencies --   3122.0725              3131.2835              3430.7279
 Red. masses --      1.1039                 1.1032                 1.0580
 Frc consts  --      6.3399                 6.3734                 7.3371
 IR Inten    --     41.1240                14.2235               161.5861

                     88                     89                     90
                      A                      A                      A
 Frequencies --   3502.1999              3551.3418              3590.2430
 Red. masses --      1.0502                 1.0885                 1.0943
 Frc consts  --      7.5896                 8.0887                 8.3108
 IR Inten    --      0.5727                28.5708                 3.7705

 Optimization completed.
    -- Stationary point found.

 1\1\GINC-C153\Freq\RwB97XD\def2SVPP\C8H22N2\PETERCHAO1\01-Apr-2024\0\\
 #T Geom=AllCheck Guess=TCheck SCRF=Check GenChk RwB97XD/def2SVPP Freq\
 \Dimer\\0,1\C,-2.1592592382,0.7575991607,1.3231862882\C,-2.9989062674,
 0.172524635,0.186897066\C,-3.8406579185,1.2550694883,-0.4899857426\C,-
 2.1274486393,-0.5673251869,-0.8479099238\N,-1.3938661143,-1.7282688762
 ,-0.3862022441\H,-2.7974909559,1.2104274489,2.1027329674\H,-1.48765399
 4,1.5488573038,0.9384960194\H,-1.5282525467,-0.011745102,1.7996934919\
 H,-3.6892750559,-0.5775500634,0.6224031922\H,-4.4867720705,0.830343352

 Normal termination of Gaussian 16 at Mon Apr  1 15:44:18 2024.
