 Gaussian 16, Revision B.01,
 Gaussian 16:  ES64L-G16RevB.01 20-Dec-2017

 ----------------------------------------------------------------------
 #T wB97XD/def2svpp opt=tight freq int(grid=ultrafine) scf=(verytight,q
 c) Volume=tight
 ----------------------------------------------------------------------
 -------
 Monomer
 -------
 Symbolic Z-matrix:
 Charge =  0 Multiplicity = 1

 SCF Done:  E(RwB97XD) =  -276.084268393     a.u. after    6 cycles
 SCF Done:  E(RwB97XD) =  -276.087248102     a.u. after    5 cycles
 SCF Done:  E(RwB97XD) =  -276.087320454     a.u. after    4 cycles
 SCF Done:  E(RwB97XD) =  -276.087319232     a.u. after    5 cycles
 SCF Done:  E(RwB97XD) =  -276.087327826     a.u. after    4 cycles
 SCF Done:  E(RwB97XD) =  -276.087334512     a.u. after    3 cycles
 SCF Done:  E(RwB97XD) =  -276.087334561     a.u. after    2 cycles
 SCF Done:  E(RwB97XD) =  -276.087334565     a.u. after    2 cycles
 SCF Done:  E(RwB97XD) =  -276.087334565     a.u. after    2 cycles
 SCF Done:  E(RwB97XD) =  -276.087334564     a.u. after    2 cycles
 SCF Done:  E(RwB97XD) =  -276.087334565     a.u. after    2 cycles
 Optimization completed.
    -- Stationary point found.
 Normal termination of Gaussian 16 at Fri Mar 29 15:39:36 2024.

 ---------------------------------------------------------------------
 #T Geom=AllCheck Guess=TCheck SCRF=Check GenChk RwB97XD/def2SVPP Freq
 ---------------------------------------------------------------------
 Structure from the checkpoint file:  "monomer.chk"
 -------
 Monomer
 -------
 Charge =  0 Multiplicity = 1

                         Standard orientation:
 ---------------------------------------------------------------------
 Center     Atomic      Atomic             Coordinates (Angstroms)
 Number     Number       Type             X           Y           Z
 ---------------------------------------------------------------------
      1          6           0       -1.809072   -1.345686    0.033869
      2          6           0       -0.988445   -0.321751    0.815986
      3          6           0       -0.000000    0.543395   -0.000000
      4          6           0       -0.766211    1.444547   -0.981287
      5          6           0        0.766213    1.444543    0.981288
      6          6           0        0.988443   -0.321752   -0.815987
      7          6           0        1.809072   -1.345686   -0.033870
      8          1           0       -2.417626   -0.872561   -0.755739
      9          1           0       -2.502270   -1.877321    0.708199
     10          1           0       -1.170022   -2.107090   -0.445948
     11          1           0       -0.427956   -0.847547    1.610954
     12          1           0       -1.678854    0.362289    1.344931
     13          1           0       -1.506611    2.070576   -0.450982
     14          1           0       -1.303663    0.857919   -1.746475
     15          1           0       -0.072755    2.120911   -1.512790
     16          1           0        1.303663    0.857912    1.746475
     17          1           0        0.072759    2.120908    1.512793
     18          1           0        1.506614    2.070571    0.450984
     19          1           0        1.678852    0.362287   -1.344933
     20          1           0        0.427953   -0.847548   -1.610954
     21          1           0        2.417635   -0.872558    0.755729
     22          1           0        2.502262   -1.877330   -0.708201
     23          1           0        1.170022   -2.107083    0.445958
 ---------------------------------------------------------------------

 SCF Done:  E(RwB97XD) =  -276.087334565     a.u. after    1 cycles

 The electronic state is 1-A.
 Alpha  occ. eigenvalues --  -10.30163 -10.28357 -10.28354 -10.27846 -10.27846
 Alpha  occ. eigenvalues --  -10.27570 -10.27569  -0.92031  -0.83383  -0.81714
 Alpha  occ. eigenvalues --   -0.76909  -0.71197  -0.70339  -0.60558  -0.55248
 Alpha  occ. eigenvalues --   -0.55192  -0.52121  -0.51277  -0.48544  -0.48095
 Alpha  occ. eigenvalues --   -0.46387  -0.45859  -0.44223  -0.43943  -0.42291
 Alpha  occ. eigenvalues --   -0.41694  -0.38969  -0.38805  -0.38072
 Alpha virt. eigenvalues --    0.12670   0.16019   0.16448   0.17422   0.18990
 Alpha virt. eigenvalues --    0.19088   0.20741   0.21108   0.21245   0.22477
 Alpha virt. eigenvalues --    0.24673   0.25238   0.25409   0.26747   0.28258

 Mulliken charges:
               1
     1  C   -0.322099
     2  C   -0.183839
     3  C   -0.239277
     4  C   -0.269210
     5  C   -0.269210
     6  C   -0.183839
     7  C   -0.322099
     8  H    0.117814
     9  H    0.119532
    10  H    0.120323
    11  H    0.102626
    12  H    0.095943
    13  H    0.110891
    14  H    0.117040
    15  H    0.110617
    16  H    0.117040
    17  H    0.110617
    18  H    0.110891
    19  H    0.095943
    20  H    0.102626
    21  H    0.117814
    22  H    0.119532
    23  H    0.120323
 Sum of Mulliken charges =  -0.00000

 Dipole moment (field-independent basis, Debye):
    X=              0.0000    Y=             -0.0698    Z=              0.0000  Tot=              0.0698
  Exact polarizability:  77.690  -0.000  77.108  -0.016   0.000  71.338
 Approx polarizability:  78.208  -0.000  78.016  -0.332  -0.000  77.614
   1 Symmetry operations used in ECPInt.
 ECPInt:  NShTT=    2775 NPrTT=   11165 LenC2=    2769 LenP2D=    9105.
 LDataN:  DoStor=T MaxTD1= 6 Len=  172
 Calling FoFJK, ICntrl=    100127 FMM=F ISym2X=0 I1Cent= 0 IOpClX= 0 NMat=1 NMatS=1 NMatT=0.
 Full mass-weighted force constant matrix:
 Low frequencies ---   -7.8230    0.0010    0.0011    0.0011    0.9474    8.5472
 Low frequencies ---  107.9374  114.6904  223.2091
 Diagonal vibrational polarizability:

                      1                      2                      3
                      A                      A                      A
 Frequencies --    107.9311               114.6701               223.2089
 Red. masses --      1.4071                 2.1620                 1.0298
 Frc consts  --      0.0097                 0.0167                 0.0302
 IR Inten    --      0.0020                 0.0040                 0.0403

                      4                      5                      6
                      A                      A                      A
 Frequencies --    235.1659               240.6622               251.0253
 Red. masses --      1.5852                 1.3186                 1.4637
 Frc consts  --      0.0517                 0.0450                 0.0543
 IR Inten    --      0.0097                 0.0372                 0.0007

                      7                      8                      9
                      A                      A                      A
 Frequencies --    291.0624               319.6844               354.5886
 Red. masses --      1.2249                 1.8544                 2.0436
 Frc consts  --      0.0611                 0.1117                 0.1514
 IR Inten    --      0.0144                 0.1528                 0.0158

                     10                     11                     12
                      A                      A                      A
 Frequencies --    382.3096               418.7151               492.8382
 Red. masses --      2.3639                 2.3552                 2.3088
 Frc consts  --      0.2036                 0.2433                 0.3304
 IR Inten    --      0.0365                 0.0915                 0.5406

                     13                     14                     15
                      A                      A                      A
 Frequencies --    504.2373               709.0576               781.8033
 Red. masses --      2.2900                 2.8512                 1.1839
 Frc consts  --      0.3430                 0.8446                 0.4263
 IR Inten    --      0.1235                 0.2922                 3.4224

                     16                     17                     18
                      A                      A                      A
 Frequencies --    811.5227               885.1066               942.2470
 Red. masses --      1.1950                 1.6948                 1.8784
 Frc consts  --      0.4637                 0.7823                 0.9826
 IR Inten    --      3.8499                 0.9121                 0.0031

                     19                     20                     21
                      A                      A                      A
 Frequencies --    960.7019              1012.7861              1027.9845
 Red. masses --      1.4474                 1.2757                 1.3562
 Frc consts  --      0.7871                 0.7710                 0.8444
 IR Inten    --      0.8798                 0.4262                 9.0320

                     22                     23                     24
                      A                      A                      A
 Frequencies --   1035.4753              1045.3293              1081.4718
 Red. masses --      1.3569                 1.6846                 2.6504
 Frc consts  --      0.8572                 1.0845                 1.8264
 IR Inten    --      2.5310                 1.4936                 0.2681

                     25                     26                     27
                      A                      A                      A
 Frequencies --   1113.6061              1122.7000              1237.0802
 Red. masses --      1.9459                 1.4736                 2.1737
 Frc consts  --      1.4218                 1.0943                 1.9599
 IR Inten    --      0.5580                 0.3562                 3.1508

                     28                     29                     30
                      A                      A                      A
 Frequencies --   1246.2168              1289.1397              1332.0115
 Red. masses --      1.9613                 2.5785                 1.3209
 Frc consts  --      1.7946                 2.5247                 1.3809
 IR Inten    --      2.6616                 0.2252                 2.5969

                     31                     32                     33
                      A                      A                      A
 Frequencies --   1332.5689              1386.6922              1399.0588
 Red. masses --      1.1963                 1.3704                 1.4851
 Frc consts  --      1.2516                 1.5526                 1.7127
 IR Inten    --      2.0667                 0.2300                 2.4069

                     34                     35                     36
                      A                      A                      A
 Frequencies --   1412.2354              1424.1819              1426.7591
 Red. masses --      1.3311                 1.3000                 1.3866
 Frc consts  --      1.5641                 1.5536                 1.6631
 IR Inten    --     10.6187                 0.5914                 4.3012

                     37                     38                     39
                      A                      A                      A
 Frequencies --   1430.3921              1475.1722              1477.2924
 Red. masses --      1.2792                 1.0656                 1.0534
 Frc consts  --      1.5420                 1.3662                 1.3544
 IR Inten    --      9.9060                 0.0174                 0.6337

                     40                     41                     42
                      A                      A                      A
 Frequencies --   1488.9509              1492.3980              1494.9246
 Red. masses --      1.0533                 1.0507                 1.0546
 Frc consts  --      1.3758                 1.3788                 1.3886
 IR Inten    --      1.7119                11.1086                13.0033

                     43                     44                     45
                      A                      A                      A
 Frequencies --   1497.1125              1503.2153              1503.7084
 Red. masses --      1.0612                 1.0631                 1.0473
 Frc consts  --      1.4013                 1.4153                 1.3953
 IR Inten    --     12.4165                 3.4226                 0.0473

                     46                     47                     48
                      A                      A                      A
 Frequencies --   1510.0379              1513.2024              3021.6734
 Red. masses --      1.0855                 1.0656                 1.0375
 Frc consts  --      1.4583                 1.4376                 5.5815
 IR Inten    --      0.2683                16.2523                20.5221

                     49                     50                     51
                      A                      A                      A
 Frequencies --   3023.6724              3028.5871              3031.3508
 Red. masses --      1.0423                 1.0641                 1.0532
 Frc consts  --      5.6145                 5.7504                 5.7023
 IR Inten    --     13.0809                53.2630                29.3999

                     52                     53                     54
                      A                      A                      A
 Frequencies --   3036.7763              3038.1764              3075.3270
 Red. masses --      1.0384                 1.0444                 1.1036
 Frc consts  --      5.6418                 5.6802                 6.1498
 IR Inten    --     25.6635                 4.4170                14.5305

                     55                     56                     57
                      A                      A                      A
 Frequencies --   3076.6790              3109.0606              3113.0073
 Red. masses --      1.1025                 1.1049                 1.1038
 Frc consts  --      6.1491                 6.2928                 6.3025
 IR Inten    --     24.2480                 0.2158                44.2573

                     58                     59                     60
                      A                      A                      A
 Frequencies --   3118.7585              3120.3190              3125.4640
 Red. masses --      1.1048                 1.1034                 1.1038
 Frc consts  --      6.3312                 6.3296                 6.3528
 IR Inten    --      5.3305                48.1673                 0.5757

                     61                     62                     63
                      A                      A                      A
 Frequencies --   3125.5597              3131.3490              3131.9438
 Red. masses --      1.1037                 1.1041                 1.1044
 Frc consts  --      6.3526                 6.3786                 6.3828
 IR Inten    --     60.9650                39.8411                18.9626

 Optimization completed.
    -- Stationary point found.
 Normal termination of Gaussian 16 at Fri Mar 29 15:41:48 2024.
