 Gaussian 16, Revision B.01,
 Gaussian 16:  ES64L-G16RevB.01 20-Dec-2017

 --------------------------------------------------------------
 #T wB97XD//def2svpp Volume=tight Geom=AllCheckpoint Guess=Read
 --------------------------------------------------------------
 Structure from the checkpoint file:  "16.chk"
 -----
 Dimer
 -----
 Charge =  0 Multiplicity = 1

                         Standard orientation:
 ---------------------------------------------------------------------
 Center     Atomic      Atomic             Coordinates (Angstroms)
 Number     Number       Type             X           Y           Z
 ---------------------------------------------------------------------
      1          6           0        2.609489   -0.276577   -0.196776
      2          6           0        1.242293   -0.456386   -0.854348
      3          6           0       -0.000001   -0.349582    0.064645
      4          6           0       -0.000008   -1.515643    1.066245
      5          6           0        0.000004    0.971433    0.866580
      6          6           0        0.000010    2.260270    0.047436
      7          6           0       -1.242296   -0.456374   -0.854350
      8          6           0       -2.609492   -0.276566   -0.196776
      9          1           0        3.412223   -0.434627   -0.937389
     10          1           0        2.775220   -0.994859    0.624287
     11          1           0        2.739474    0.739471    0.214079
     12          1           0        1.209965   -1.445745   -1.348610
     13          1           0        1.146053    0.282885   -1.670693
     14          1           0        0.886253   -1.485043    1.723218
     15          1           0       -0.000012   -2.488916    0.542644
     16          1           0       -0.886271   -1.485035    1.723215
     17          1           0        0.876988    0.973145    1.539237
     18          1           0       -0.876982    0.973153    1.539236
     19          1           0        0.890792    2.337199   -0.599949
     20          1           0        0.000015    3.140520    0.713069
     21          1           0       -0.890772    2.337208   -0.599948
     22          1           0       -1.209971   -1.445730   -1.348619
     23          1           0       -1.146053    0.282903   -1.670689
     24          1           0       -2.775225   -0.994856    0.624279
     25          1           0       -3.412225   -0.434605   -0.937392
     26          1           0       -2.739472    0.739479    0.214089
 ---------------------------------------------------------------------

 SCF Done:  E(RwB97XD) =  -315.357040384     A.U. after    1 cycles

 The electronic state is 1-A.
 Alpha  occ. eigenvalues --  -10.30038 -10.28280 -10.28280 -10.28251 -10.27848
 Alpha  occ. eigenvalues --  -10.27811 -10.27810 -10.27497  -0.92327  -0.83946
 Alpha  occ. eigenvalues --   -0.83201  -0.79842  -0.73904  -0.70652  -0.67969
 Alpha  occ. eigenvalues --   -0.60257  -0.56081  -0.55551  -0.53424  -0.50557
 Alpha  occ. eigenvalues --   -0.48848  -0.48449  -0.48105  -0.47116  -0.45320
 Alpha  occ. eigenvalues --   -0.45113  -0.43153  -0.42487  -0.42153  -0.40834
 Alpha  occ. eigenvalues --   -0.38641  -0.38070  -0.37703
 Alpha virt. eigenvalues --    0.12524   0.15718   0.16240   0.16450   0.18749
 Alpha virt. eigenvalues --    0.19232   0.19911   0.20067   0.20552   0.22090
 Alpha virt. eigenvalues --    0.22725   0.23719   0.24043   0.26480   0.26543

 Mulliken charges:
               1
     1  C   -0.315080
     2  C   -0.180835
     3  C   -0.230152
     4  C   -0.275964
     5  C   -0.194060
     6  C   -0.323253
     7  C   -0.180835
     8  C   -0.315080
     9  H    0.118720
    10  H    0.117412
    11  H    0.120337
    12  H    0.095600
    13  H    0.101748
    14  H    0.116399
    15  H    0.110073
    16  H    0.116399
    17  H    0.102721
    18  H    0.102721
    19  H    0.119929
    20  H    0.119457
    21  H    0.119929
    22  H    0.095600
    23  H    0.101748
    24  H    0.117412
    25  H    0.118720
    26  H    0.120337
 Sum of Mulliken charges =  -0.00000

 Dipole moment (field-independent basis, Debye):
    X=             -0.0000    Y=              0.0482    Z=             -0.0264  Tot=              0.0549
 Evaluate density.
 Using the total density.
 Monte-Carlo method of calculating molar volume:
 based on  0.001 e/bohr**3 density envelope.
 Number of points per bohr**3 =  100 CutOff= 1.00D-04
 Using the SCF density.
 There are      1973 points.  Will hold      1973 in memory.
 LenV=  1048237048 MDV=  1048576000.
 Box volume = 7685.283 fraction occupied=0.182
 Integrated density= 9.7360601091680692D+01 error= 3.1360601091680692D+01

 Normal termination of Gaussian 16 at Fri Feb  3 13:05:36 2023.
