 Gaussian 16, Revision B.01,
 Gaussian 16:  ES64L-G16RevB.01 20-Dec-2017

 ----------------------------------------------------------------------
 #T wB97XD/def2svpp opt=tight freq int(grid=ultrafine) scf=(verytight,q
 c) Volume=tight
 ----------------------------------------------------------------------
 -------
 Monomer
 -------
 Symbolic Z-matrix:
 Charge =  0 Multiplicity = 1

 SCF Done:  E(RwB97XD) =  -271.470702952     a.u. after    8 cycles
 SCF Done:  E(RwB97XD) =  -271.472662793     a.u. after    5 cycles
 SCF Done:  E(RwB97XD) =  -271.472687031     a.u. after    3 cycles
 SCF Done:  E(RwB97XD) =  -271.472687372     a.u. after    3 cycles
 SCF Done:  E(RwB97XD) =  -271.472687429     a.u. after    3 cycles
 SCF Done:  E(RwB97XD) =  -271.472688545     a.u. after    2 cycles
 SCF Done:  E(RwB97XD) =  -271.472688553     a.u. after    2 cycles
 Optimization completed.
    -- Stationary point found.

 1\1\GINC-C385\FOpt\RwB97XD\def2SVPP\C5H10O1\PETERCHAO1\06-Feb-2023\0\\
 #T wB97XD/def2svpp opt=tight freq int(grid=ultrafine) scf=(verytight,q
 c) Volume=tight\\Monomer\\0,1\C,0.2776589764,1.5463142524,0.0007339123
 \C,0.4089529274,0.0241301688,0.0000175211\C,1.1461215389,-0.4674398831
 ,-1.2577660107\C,1.146198127,-0.4686190675,1.2572937402\C,-0.967982007
 3,-0.624015555,-0.0002484431\O,-2.0167560196,-0.040606764,0.0000283193
 \H,-0.2730563017,1.8971783984,-0.8879022358\H,1.2761273086,2.017796950
 4,0.0009182009\H,-0.272990939,1.8963476907,0.8897384488\H,1.2089311423

 Normal termination of Gaussian 16 at Mon Feb  6 10:17:54 2023.

 ---------------------------------------------------------------------
 #T Geom=AllCheck Guess=TCheck SCRF=Check GenChk RwB97XD/def2SVPP Freq
 ---------------------------------------------------------------------
 Structure from the checkpoint file:  "22.chk"
 -------
 Monomer
 -------
 Charge =  0 Multiplicity = 1

                         Standard orientation:
 ---------------------------------------------------------------------
 Center     Atomic      Atomic             Coordinates (Angstroms)
 Number     Number       Type             X           Y           Z
 ---------------------------------------------------------------------
      1          6           0       -0.169101    1.544584   -0.000004
      2          6           0       -0.330037    0.025248   -0.000001
      3          6           0       -1.076676   -0.452449    1.257542
      4          6           0       -1.076717   -0.452452   -1.257518
      5          6           0        1.034004   -0.649611   -0.000018
      6          8           0        2.093949   -0.086754   -0.000007
      7          1           0        0.388327    1.884233    0.888804
      8          1           0       -1.158191    2.035437    0.000018
      9          1           0        0.388287    1.884234   -0.888837
     10          1           0       -1.160971   -1.553950    1.285658
     11          1           0       -2.099624   -0.037035    1.270785
     12          1           0       -0.563053   -0.123056    2.177759
     13          1           0       -0.563118   -0.123070   -2.177753
     14          1           0       -2.099661   -0.037030   -1.270735
     15          1           0       -1.161020   -1.553952   -1.285622
     16          1           0        0.988599   -1.773692   -0.000035
 ---------------------------------------------------------------------

 SCF Done:  E(RwB97XD) =  -271.472688553     a.u. after    1 cycles

 The electronic state is 1-A.
 Alpha  occ. eigenvalues --  -19.25727 -10.38237 -10.32096 -10.29845 -10.29844
 Alpha  occ. eigenvalues --  -10.28491  -1.14258  -0.92490  -0.78896  -0.78426
 Alpha  occ. eigenvalues --   -0.72683  -0.62578  -0.57373  -0.54782  -0.54265
 Alpha  occ. eigenvalues --   -0.51865  -0.49427  -0.47535  -0.46337  -0.45593
 Alpha  occ. eigenvalues --   -0.45534  -0.42452  -0.42156  -0.33465
 Alpha virt. eigenvalues --    0.05495   0.12630   0.16543   0.17669   0.19206
 Alpha virt. eigenvalues --    0.19674   0.19980   0.21308   0.24378   0.24794
 Alpha virt. eigenvalues --    0.26345   0.26510   0.28402   0.29491   0.34008

 Mulliken charges:
               1
     1  C   -0.256715
     2  C   -0.285345
     3  C   -0.290215
     4  C   -0.290215
     5  C    0.116839
     6  O   -0.202465
     7  H    0.127551
     8  H    0.113259
     9  H    0.127550
    10  H    0.121833
    11  H    0.127893
    12  H    0.132366
    13  H    0.132365
    14  H    0.127893
    15  H    0.121834
    16  H    0.075572
 Sum of Mulliken charges =  -0.00000

 Dipole moment (field-independent basis, Debye):
    X=             -2.5406    Y=             -0.6940    Z=             -0.0000  Tot=              2.6337
  Exact polarizability:  57.817   2.136  56.190   0.000   0.000  50.638
 Approx polarizability:  63.738   4.359  58.201   0.000   0.000  52.067
   1 Symmetry operations used in ECPInt.
 ECPInt:  NShTT=    1596 NPrTT=    6436 LenC2=    1594 LenP2D=    5361.
 LDataN:  DoStor=T MaxTD1= 6 Len=  172
 Calling FoFJK, ICntrl=    100127 FMM=F ISym2X=0 I1Cent= 0 IOpClX= 0 NMat=1 NMatS=1 NMatT=0.
 Full mass-weighted force constant matrix:
 Low frequencies ---   -0.0004    0.0003    0.0012    7.6498    9.3977   12.1179
 Low frequencies ---   87.0675  212.2715  264.2918
 Diagonal vibrational polarizability:

                      1                      2                      3
                      A                      A                      A
 Frequencies --     87.0535               212.2689               264.2908
 Red. masses --      3.5121                 1.0217                 1.4250
 Frc consts  --      0.0157                 0.0271                 0.0586
 IR Inten    --      4.3913                 0.0238                 2.9025

                      4                      5                      6
                      A                      A                      A
 Frequencies --    271.3676               288.5165               331.3564
 Red. masses --      1.0366                 1.7687                 2.0546
 Frc consts  --      0.0450                 0.0867                 0.1329
 IR Inten    --      0.1756                 3.3492                 0.5242

                      7                      8                      9
                      A                      A                      A
 Frequencies --    358.3155               400.3003               414.0402
 Red. masses --      2.6134                 2.3105                 2.0656
 Frc consts  --      0.1977                 0.2181                 0.2086
 IR Inten    --      1.7526                 1.0606                 0.0892

                     10                     11                     12
                      A                      A                      A
 Frequencies --    611.6688               786.0367               913.0184
 Red. masses --      3.6853                 3.4221                 2.0479
 Frc consts  --      0.8124                 1.2457                 1.0058
 IR Inten    --      3.5449                 9.5102                32.6490

                     13                     14                     15
                      A                      A                      A
 Frequencies --    958.9396               968.2161               971.2013
 Red. masses --      2.0249                 1.4953                 1.3111
 Frc consts  --      1.0971                 0.8259                 0.7286
 IR Inten    --      1.3556                 2.4344                 0.8775

                     16                     17                     18
                      A                      A                      A
 Frequencies --    976.1657              1065.2248              1080.5845
 Red. masses --      1.2090                 1.4424                 1.5389
 Frc consts  --      0.6788                 0.9643                 1.0587
 IR Inten    --      0.0144                 4.4678                 0.1618

                     19                     20                     21
                      A                      A                      A
 Frequencies --   1258.8933              1263.6469              1319.1834
 Red. masses --      2.7384                 2.4890                 2.8368
 Frc consts  --      2.5570                 2.3417                 2.9086
 IR Inten    --      2.8986                 2.1653                 0.8365

                     22                     23                     24
                      A                      A                      A
 Frequencies --   1404.0206              1413.3919              1418.9299
 Red. masses --      1.2507                 1.3139                 1.2026
 Frc consts  --      1.4526                 1.5464                 1.4265
 IR Inten    --      7.3695                10.9166                 1.5722

                     25                     26                     27
                      A                      A                      A
 Frequencies --   1443.4927              1473.8348              1477.9123
 Red. masses --      1.2279                 1.0439                 1.0411
 Frc consts  --      1.5074                 1.3360                 1.3398
 IR Inten    --      6.3756                 0.0184                 0.0395

                     28                     29                     30
                      A                      A                      A
 Frequencies --   1480.1747              1496.2146              1502.7635
 Red. masses --      1.0440                 1.0517                 1.0750
 Frc consts  --      1.3476                 1.3872                 1.4304
 IR Inten    --      0.6221                 9.5250                 9.1177

                     31                     32                     33
                      A                      A                      A
 Frequencies --   1514.6484              1893.7890              2883.3868
 Red. masses --      1.0818                11.1060                 1.0845
 Frc consts  --      1.4623                23.4677                 5.3124
 IR Inten    --     25.6211               186.7025               119.3511

                     34                     35                     36
                      A                      A                      A
 Frequencies --   3024.6838              3026.8631              3040.2878
 Red. masses --      1.0366                 1.0371                 1.0381
 Frc consts  --      5.5873                 5.5983                 5.6536
 IR Inten    --     23.2144                19.3369                14.5219

                     37                     38                     39
                      A                      A                      A
 Frequencies --   3117.6661              3119.6588              3125.0526
 Red. masses --      1.1049                 1.1041                 1.1058
 Frc consts  --      6.3276                 6.3312                 6.3627
 IR Inten    --      1.3818                33.7989                 9.2554

                     40                     41                     42
                      A                      A                      A
 Frequencies --   3125.5459              3132.7511              3143.7164
 Red. masses --      1.1052                 1.1046                 1.1047
 Frc consts  --      6.3614                 6.3870                 6.4325
 IR Inten    --     10.8946                21.1742                13.9840

 Optimization completed.
    -- Stationary point found.

 1\1\GINC-C385\Freq\RwB97XD\def2SVPP\C5H10O1\PETERCHAO1\06-Feb-2023\0\\
 #T Geom=AllCheck Guess=TCheck SCRF=Check GenChk RwB97XD/def2SVPP Freq\
 \Monomer\\0,1\C,0.2776589764,1.5463142524,0.0007339123\C,0.4089529274,
 0.0241301688,0.0000175211\C,1.1461215389,-0.4674398831,-1.2577660107\C
 ,1.146198127,-0.4686190675,1.2572937402\C,-0.9679820073,-0.624015555,-
 0.0002484431\O,-2.0167560196,-0.040606764,0.0000283193\H,-0.2730563017
 ,1.8971783984,-0.8879022358\H,1.2761273086,2.0177969504,0.0009182009\H
 ,-0.272990939,1.8963476907,0.8897384488\H,1.2089311423,-1.5703607054,-

 Normal termination of Gaussian 16 at Mon Feb  6 10:19:06 2023.
