 Gaussian 16, Revision B.01,
 Gaussian 16:  ES64L-G16RevB.01 20-Dec-2017

 ----------------------------------------------------------------------
 #T wB97XD/def2svpp opt=tight freq int(grid=ultrafine) scf=(verytight,q
 c) Volume=tight
 ----------------------------------------------------------------------
 -------
 Monomer
 -------
 Symbolic Z-matrix:
 Charge =  0 Multiplicity = 1

 SCF Done:  E(RwB97XD) =  -354.618706191     a.u. after    6 cycles
 SCF Done:  E(RwB97XD) =  -354.622630031     a.u. after    5 cycles
 SCF Done:  E(RwB97XD) =  -354.622680806     a.u. after    4 cycles
 SCF Done:  E(RwB97XD) =  -354.622668768     a.u. after    5 cycles
 SCF Done:  E(RwB97XD) =  -354.622684586     a.u. after    5 cycles
 SCF Done:  E(RwB97XD) =  -354.622719655     a.u. after    4 cycles
 SCF Done:  E(RwB97XD) =  -354.622720220     a.u. after    2 cycles
 SCF Done:  E(RwB97XD) =  -354.622720266     a.u. after    2 cycles
 SCF Done:  E(RwB97XD) =  -354.622720283     a.u. after    2 cycles
 SCF Done:  E(RwB97XD) =  -354.622720287     a.u. after    2 cycles
 SCF Done:  E(RwB97XD) =  -354.622720285     a.u. after    2 cycles
 SCF Done:  E(RwB97XD) =  -354.622720286     a.u. after    2 cycles
 Optimization completed.
    -- Stationary point found.
 Normal termination of Gaussian 16 at Mon Feb  6 10:25:53 2023.

 ---------------------------------------------------------------------
 #T Geom=AllCheck Guess=TCheck SCRF=Check GenChk RwB97XD/def2SVPP Freq
 ---------------------------------------------------------------------
 Structure from the checkpoint file:  "34.chk"
 -------
 Monomer
 -------
 Charge =  0 Multiplicity = 1

                         Standard orientation:
 ---------------------------------------------------------------------
 Center     Atomic      Atomic             Coordinates (Angstroms)
 Number     Number       Type             X           Y           Z
 ---------------------------------------------------------------------
      1          6           0       -2.851977   -0.578423   -0.001088
      2          6           0       -1.369658   -0.846062   -0.267220
      3          6           0       -0.392400    0.332725   -0.008325
      4          6           0       -0.587264    1.381823   -1.119048
      5          6           0       -0.741555    1.002410    1.333624
      6          6           0        1.105260   -0.194398    0.005131
      7          6           0        1.377382   -1.159081   -1.164929
      8          6           0        2.108941    0.968083   -0.117164
      9          6           0        1.423450   -0.943298    1.313116
     10          1           0       -3.056322   -0.404071    1.068519
     11          1           0       -3.453047   -1.450558   -0.310995
     12          1           0       -3.229749    0.293977   -0.561960
     13          1           0       -1.260183   -1.168245   -1.317459
     14          1           0       -1.069950   -1.712490    0.348972
     15          1           0       -1.654376    1.640975   -1.225774
     16          1           0       -0.238198    1.017609   -2.100788
     17          1           0       -0.052056    2.319357   -0.894296
     18          1           0       -1.697126    1.548748    1.257878
     19          1           0        0.025059    1.736537    1.634876
     20          1           0       -0.845737    0.267613    2.150120
     21          1           0        1.084094   -0.728106   -2.137897
     22          1           0        0.849484   -2.119581   -1.045083
     23          1           0        2.457285   -1.385023   -1.219054
     24          1           0        1.925015    1.761862    0.627300
     25          1           0        2.087629    1.429180   -1.118710
     26          1           0        3.135333    0.595275    0.048963
     27          1           0        0.691182   -1.739984    1.530399
     28          1           0        1.452543   -0.263509    2.181101
     29          1           0        2.416047   -1.422238    1.239317
 ---------------------------------------------------------------------

 SCF Done:  E(RwB97XD) =  -354.622720286     a.u. after    1 cycles

 The electronic state is 1-A.
 Alpha  occ. eigenvalues --  -10.30477 -10.30407 -10.28267 -10.27807 -10.27523
 Alpha  occ. eigenvalues --  -10.27521 -10.27507 -10.27486 -10.27460  -0.93157
 Alpha  occ. eigenvalues --   -0.86692  -0.81568  -0.78142  -0.76804  -0.75240
 Alpha  occ. eigenvalues --   -0.71703  -0.65842  -0.58832  -0.56559  -0.54200
 Alpha  occ. eigenvalues --   -0.53262  -0.52025  -0.51540  -0.48492  -0.48312
 Alpha  occ. eigenvalues --   -0.46758  -0.45518  -0.45069  -0.44409  -0.44200
 Alpha  occ. eigenvalues --   -0.43810  -0.42811  -0.41811  -0.41162  -0.38046
 Alpha  occ. eigenvalues --   -0.37486  -0.37258
 Alpha virt. eigenvalues --    0.12434   0.15613   0.16694   0.17384   0.18071
 Alpha virt. eigenvalues --    0.18299   0.18757   0.20157   0.21004   0.21825
 Alpha virt. eigenvalues --    0.22220   0.23421   0.23752   0.24472   0.24813

 Mulliken charges:
               1
     1  C   -0.311421
     2  C   -0.193410
     3  C   -0.185506
     4  C   -0.284203
     5  C   -0.288827
     6  C   -0.206444
     7  C   -0.274293
     8  C   -0.275691
     9  C   -0.277106
    10  H    0.118278
    11  H    0.117927
    12  H    0.117174
    13  H    0.103363
    14  H    0.103191
    15  H    0.115227
    16  H    0.114357
    17  H    0.117655
    18  H    0.119655
    19  H    0.116211
    20  H    0.119396
    21  H    0.115013
    22  H    0.118255
    23  H    0.111097
    24  H    0.115568
    25  H    0.117662
    26  H    0.111149
    27  H    0.117429
    28  H    0.117070
    29  H    0.111225
 Sum of Mulliken charges =   0.00000

 Dipole moment (field-independent basis, Debye):
    X=             -0.0313    Y=             -0.0464    Z=              0.0049  Tot=              0.0562
  Exact polarizability: 103.960  -0.091  92.065  -0.108   0.034  90.886
 Approx polarizability: 102.296  -0.246 100.397   0.100  -0.129 100.037
   1 Symmetry operations used in ECPInt.
 ECPInt:  NShTT=    4465 NPrTT=   17943 LenC2=    4452 LenP2D=   14263.
 LDataN:  DoStor=T MaxTD1= 6 Len=  172
 Calling FoFJK, ICntrl=    100127 FMM=F ISym2X=0 I1Cent= 0 IOpClX= 0 NMat=1 NMatS=1 NMatT=0.
 Full mass-weighted force constant matrix:
 Low frequencies ---  -10.4774   -4.8582   -0.0002    0.0003    0.0005    8.0484
 Low frequencies ---  110.7371  138.8445  214.8850
 Diagonal vibrational polarizability:

                      1                      2                      3
                      A                      A                      A
 Frequencies --    110.7298               138.8272               214.8790
 Red. masses --      2.4230                 1.8556                 1.9906
 Frc consts  --      0.0175                 0.0211                 0.0542
 IR Inten    --      0.0111                 0.0045                 0.0297

                      4                      5                      6
                      A                      A                      A
 Frequencies --    254.4814               258.3489               271.5030
 Red. masses --      1.0911                 1.3650                 1.1364
 Frc consts  --      0.0416                 0.0537                 0.0494
 IR Inten    --      0.0143                 0.0444                 0.0102

                      7                      8                      9
                      A                      A                      A
 Frequencies --    295.3415               318.7227               327.1960
 Red. masses --      1.1024                 1.2071                 2.0100
 Frc consts  --      0.0567                 0.0722                 0.1268
 IR Inten    --      0.0657                 0.0411                 0.0043

                     10                     11                     12
                      A                      A                      A
 Frequencies --    335.1330               362.0094               380.6901
 Red. masses --      1.6264                 2.0091                 2.2597
 Frc consts  --      0.1076                 0.1551                 0.1930
 IR Inten    --      0.0724                 0.0295                 0.0431

                     13                     14                     15
                      A                      A                      A
 Frequencies --    391.9106               402.7326               405.0920
 Red. masses --      1.4912                 2.0437                 2.0584
 Frc consts  --      0.1349                 0.1953                 0.1990
 IR Inten    --      0.0563                 0.0356                 0.0288

                     16                     17                     18
                      A                      A                      A
 Frequencies --    411.8521               475.3937               483.5654
 Red. masses --      2.1111                 2.5440                 2.5316
 Frc consts  --      0.2110                 0.3387                 0.3488
 IR Inten    --      0.0647                 0.0181                 0.0162

                     19                     20                     21
                      A                      A                      A
 Frequencies --    531.1479               673.3348               795.4755
 Red. masses --      2.1741                 2.8340                 1.5972
 Frc consts  --      0.3614                 0.7570                 0.5955
 IR Inten    --      0.3800                 0.5191                 2.6839

                     22                     23                     24
                      A                      A                      A
 Frequencies --    814.9297               890.0642               944.4745
 Red. masses --      1.6471                 1.8929                 1.7297
 Frc consts  --      0.6445                 0.8835                 0.9091
 IR Inten    --      2.1831                 0.2807                 0.5656

                     25                     26                     27
                      A                      A                      A
 Frequencies --    954.7439               956.3429               962.0585
 Red. masses --      1.5292                 1.6481                 1.5230
 Frc consts  --      0.8213                 0.8881                 0.8305
 IR Inten    --      0.2759                 1.1506                 1.2895

                     28                     29                     30
                      A                      A                      A
 Frequencies --    973.2809              1015.8040              1033.7259
 Red. masses --      1.2195                 1.2257                 1.4358
 Frc consts  --      0.6806                 0.7452                 0.9040
 IR Inten    --      0.0195                 0.1174                 0.3360

                     31                     32                     33
                      A                      A                      A
 Frequencies --   1049.0046              1053.9115              1083.8687
 Red. masses --      1.3320                 1.8789                 1.4250
 Frc consts  --      0.8636                 1.2296                 0.9863
 IR Inten    --      0.4846                 5.0482                 0.4018

                     34                     35                     36
                      A                      A                      A
 Frequencies --   1094.8578              1196.9685              1220.1435
 Red. masses --      1.8105                 2.0119                 2.3861
 Frc consts  --      1.2787                 1.6984                 2.0930
 IR Inten    --      1.5466                23.5615                 2.9311

                     37                     38                     39
                      A                      A                      A
 Frequencies --   1230.8515              1279.5158              1281.6384
 Red. masses --      2.5283                 2.5029                 2.5601
 Frc consts  --      2.2568                 2.4143                 2.4776
 IR Inten    --      5.2891                 0.9900                 1.5141

                     40                     41                     42
                      A                      A                      A
 Frequencies --   1294.0968              1347.9413              1385.2363
 Red. masses --      3.1080                 1.2605                 1.4095
 Frc consts  --      3.0666                 1.3494                 1.5935
 IR Inten    --      0.9344                 0.6354                 0.5143

                     43                     44                     45
                      A                      A                      A
 Frequencies --   1408.6961              1411.7103              1415.8501
 Red. masses --      1.3073                 1.2560                 1.2856
 Frc consts  --      1.5285                 1.4748                 1.5184
 IR Inten    --      6.9076                15.7856                 3.9267

                     46                     47                     48
                      A                      A                      A
 Frequencies --   1425.0006              1428.9403              1444.7499
 Red. masses --      1.3228                 1.2483                 1.2232
 Frc consts  --      1.5826                 1.5017                 1.5042
 IR Inten    --      8.8134                12.2801                 5.6495

                     49                     50                     51
                      A                      A                      A
 Frequencies --   1474.7367              1479.5392              1480.4592
 Red. masses --      1.0613                 1.0501                 1.0467
 Frc consts  --      1.3599                 1.3544                 1.3517
 IR Inten    --      0.7144                 1.1904                 0.0702

                     52                     53                     54
                      A                      A                      A
 Frequencies --   1486.1618              1487.4417              1492.8156
 Red. masses --      1.0508                 1.0504                 1.0519
 Frc consts  --      1.3674                 1.3693                 1.3811
 IR Inten    --      0.5895                 1.0237                 7.9652

                     55                     56                     57
                      A                      A                      A
 Frequencies --   1498.3745              1503.8345              1510.1536
 Red. masses --      1.0558                 1.0459                 1.0566
 Frc consts  --      1.3965                 1.3937                 1.4198
 IR Inten    --      4.7222                12.3871                 7.7313

                     58                     59                     60
                      A                      A                      A
 Frequencies --   1512.4572              1515.4869              1519.5714
 Red. masses --      1.0476                 1.0577                 1.0547
 Frc consts  --      1.4120                 1.4313                 1.4349
 IR Inten    --     16.4180                 2.5415                 6.4124

                     61                     62                     63
                      A                      A                      A
 Frequencies --   1528.6953              3031.0967              3031.3498
 Red. masses --      1.0622                 1.0381                 1.0384
 Frc consts  --      1.4625                 5.6191                 5.6222
 IR Inten    --      2.3861                15.3418                21.0676

                     64                     65                     66
                      A                      A                      A
 Frequencies --   3034.7279              3036.3457              3038.0904
 Red. masses --      1.0388                 1.0384                 1.0383
 Frc consts  --      5.6369                 5.6404                 5.6463
 IR Inten    --      7.2176                34.7071                33.4480

                     67                     68                     69
                      A                      A                      A
 Frequencies --   3041.7475              3049.3923              3096.4422
 Red. masses --      1.0430                 1.0578                 1.1041
 Frc consts  --      5.6856                 5.7952                 6.2372
 IR Inten    --     26.1158                13.3604                 9.4580

                     70                     71                     72
                      A                      A                      A
 Frequencies --   3114.4714              3115.2316              3120.3640
 Red. masses --      1.1041                 1.1040                 1.1024
 Frc consts  --      6.3098                 6.3125                 6.3242
 IR Inten    --      1.5664                 2.7548                79.9350

                     73                     74                     75
                      A                      A                      A
 Frequencies --   3122.1382              3123.2404              3127.8217
 Red. masses --      1.1042                 1.1039                 1.1050
 Frc consts  --      6.3419                 6.3446                 6.3692
 IR Inten    --     16.7559                 4.2278                13.3669

                     76                     77                     78
                      A                      A                      A
 Frequencies --   3128.8042              3132.3443              3133.6500
 Red. masses --      1.1026                 1.1042                 1.1032
 Frc consts  --      6.3594                 6.3833                 6.3825
 IR Inten    --     43.2603                20.1715                64.0233

                     79                     80                     81
                      A                      A                      A
 Frequencies --   3134.0572              3135.1908              3137.0273
 Red. masses --      1.1040                 1.1041                 1.1036
 Frc consts  --      6.3890                 6.3941                 6.3989
 IR Inten    --      2.6874                46.0431                 3.7675

 Optimization completed.
    -- Stationary point found.
 Normal termination of Gaussian 16 at Mon Feb  6 10:30:19 2023.
