 Gaussian 16, Revision B.01,
 Gaussian 16:  ES64L-G16RevB.01 20-Dec-2017

 ----------------------------------------------------------------------
 #T wB97XD/def2svpp opt=tight freq int(grid=ultrafine) scf=(verytight,q
 c)
 ----------------------------------------------------------------------
 -----
 dimer
 -----
 Symbolic Z-matrix:
 Charge =  0 Multiplicity = 1

 SCF Done:  E(RwB97XD) =  -1915.08939216     a.u. after    8 cycles
 SCF Done:  E(RwB97XD) =  -1915.08896586     a.u. after   11 cycles
 SCF Done:  E(RwB97XD) =  -1915.09096959     a.u. after   13 cycles
 SCF Done:  E(RwB97XD) =  -1915.09157145     a.u. after   11 cycles
 SCF Done:  E(RwB97XD) =  -1915.09207782     a.u. after   11 cycles
 SCF Done:  E(RwB97XD) =  -1915.09254813     a.u. after    9 cycles
 SCF Done:  E(RwB97XD) =  -1915.09272781     a.u. after    7 cycles
 SCF Done:  E(RwB97XD) =  -1915.09270835     a.u. after    7 cycles
 SCF Done:  E(RwB97XD) =  -1915.09276498     a.u. after    7 cycles
 SCF Done:  E(RwB97XD) =  -1915.09292487     a.u. after    6 cycles
 SCF Done:  E(RwB97XD) =  -1915.09299066     a.u. after    2 cycles
 SCF Done:  E(RwB97XD) =  -1915.09299069     a.u. after    2 cycles
 SCF Done:  E(RwB97XD) =  -1915.09299070     a.u. after    2 cycles
 SCF Done:  E(RwB97XD) =  -1915.09299070     a.u. after    2 cycles
 SCF Done:  E(RwB97XD) =  -1915.09299070     a.u. after    2 cycles
 SCF Done:  E(RwB97XD) =  -1915.09299071     a.u. after    2 cycles
 SCF Done:  E(RwB97XD) =  -1915.09299071     a.u. after    2 cycles
 SCF Done:  E(RwB97XD) =  -1915.09299071     a.u. after    2 cycles
 SCF Done:  E(RwB97XD) =  -1915.09299071     a.u. after    2 cycles
 Optimization completed.
    -- Stationary point found.
 Normal termination of Gaussian 16 at Thu Sep  1 01:35:34 2022.

 ---------------------------------------------------------------------
 #T Geom=AllCheck Guess=TCheck SCRF=Check GenChk RwB97XD/def2SVPP Freq
 ---------------------------------------------------------------------
 Structure from the checkpoint file:  "/scratch/user/peterchao1/peterchao1/6215031_1662005188000000893564070/Gau-111506.chk"
 -----
 dimer
 -----
 Charge =  0 Multiplicity = 1

                         Standard orientation:
 ---------------------------------------------------------------------
 Center     Atomic      Atomic             Coordinates (Angstroms)
 Number     Number       Type             X           Y           Z
 ---------------------------------------------------------------------
      1          8           0       -5.169425    0.917503    0.419634
      2          6           0       -4.026088    0.621256    1.195458
      3          6           0       -3.006245   -0.271261    0.456970
      4          6           0       -1.808113   -0.495875    1.394104
      5          8           0       -0.849836   -1.395128    0.888407
      6          6           0       -3.635758   -1.651860    0.142606
      7          8           0       -4.863654   -1.590450   -0.552093
      8          6           0       -2.579803    0.373100   -0.883958
      9          8           0       -3.627354    0.598597   -1.735042
     10         17           0       -1.651624    1.946869   -0.582053
     11          1           0       -5.584891    0.060378    0.202684
     12          1           0       -4.317687    0.124954    2.142591
     13          1           0       -3.563253    1.587097    1.452471
     14          1           0       -2.175818   -0.932207    2.337885
     15          1           0       -1.349840    0.481527    1.636682
     16          1           0       -0.432611   -1.020413    0.072106
     17          1           0       -3.851710   -2.160376    1.096814
     18          1           0       -2.903428   -2.277347   -0.399706
     19          1           0       -4.683962   -1.223949   -1.433916
     20          1           0       -1.843267   -0.245687   -1.414368
     21          1           0       -4.336349    1.038897   -1.211432
     22          8           0        0.587331   -0.320181   -1.055645
     23          6           0        1.839492   -0.935575   -1.280693
     24          6           0        2.928364   -0.673075   -0.216249
     25          6           0        2.583037   -1.263650    1.167516
     26          8           0        1.548291   -0.587272    1.847393
     27          6           0        4.213356   -1.369065   -0.723606
     28          8           0        4.795394   -0.730189   -1.827101
     29          6           0        3.131968    0.853617   -0.134953
     30          8           0        2.046359    1.519014    0.357869
     31         17           0        4.655790    1.246970    0.842338
     32          1           0        0.706382    0.628546   -0.856246
     33          1           0        2.237214   -0.632983   -2.267067
     34          1           0        1.637774   -2.019108   -1.322073
     35          1           0        3.478162   -1.193997    1.807735
     36          1           0        2.340465   -2.337818    1.051794
     37          1           0        0.678833   -1.008127    1.655282
     38          1           0        3.958640   -2.393435   -1.046823
     39          1           0        4.931778   -1.459529    0.111204
     40          1           0        5.341864   -0.000086   -1.501463
     41          1           0        3.364029    1.264138   -1.126666
     42          1           0        1.718734    1.003416    1.137126
 ---------------------------------------------------------------------

 SCF Done:  E(RwB97XD) =  -1915.09299071     a.u. after    1 cycles

 The electronic state is 1-A.
 Alpha  occ. eigenvalues -- -101.66761-101.66531 -19.29096 -19.28738 -19.28361
 Alpha  occ. eigenvalues --  -19.27869 -19.27581 -19.27556 -19.27087 -19.26890
 Alpha  occ. eigenvalues --  -10.41851 -10.41748 -10.36628 -10.36352 -10.36210
 Alpha  occ. eigenvalues --  -10.36157 -10.36150 -10.35994 -10.33677 -10.33478
 Alpha  occ. eigenvalues --   -9.57529  -9.57321  -7.32832  -7.32625  -7.31992
 Alpha  occ. eigenvalues --   -7.31953  -7.31786  -7.31740  -1.17477  -1.17324
 Alpha  occ. eigenvalues --   -1.14896  -1.14127  -1.13686  -1.13397  -1.12854
 Alpha  occ. eigenvalues --   -1.12318  -0.94997  -0.94821  -0.90783  -0.90482
 Alpha  occ. eigenvalues --   -0.79767  -0.79356  -0.78083  -0.77734  -0.77172
 Alpha  occ. eigenvalues --   -0.77154  -0.70502  -0.70155  -0.65376  -0.64924
 Alpha  occ. eigenvalues --   -0.64487  -0.63689  -0.63182  -0.61534  -0.59445
 Alpha  occ. eigenvalues --   -0.58527  -0.57835  -0.57371  -0.56999  -0.56322
 Alpha  occ. eigenvalues --   -0.54956  -0.54888  -0.53861  -0.53363  -0.52220
 Alpha  occ. eigenvalues --   -0.52065  -0.51372  -0.51178  -0.50764  -0.50224
 Alpha  occ. eigenvalues --   -0.48263  -0.47650  -0.46279  -0.45788  -0.45321
 Alpha  occ. eigenvalues --   -0.44187  -0.43196  -0.42764  -0.40808  -0.40689
 Alpha  occ. eigenvalues --   -0.39774  -0.39551  -0.38877  -0.38488  -0.37922
 Alpha  occ. eigenvalues --   -0.37693  -0.36977  -0.36796  -0.36435  -0.36320
 Alpha virt. eigenvalues --    0.09796   0.10017   0.12007   0.12764   0.13057
 Alpha virt. eigenvalues --    0.13352   0.13974   0.16020   0.16552   0.17017
 Alpha virt. eigenvalues --    0.17347   0.17827   0.18849   0.19409   0.19700

 Mulliken charges:
               1
     1  O   -0.513075
     2  C    0.071254
     3  C   -0.375466
     4  C    0.062315
     5  O   -0.545696
     6  C    0.078190
     7  O   -0.509395
     8  C    0.106810
     9  O   -0.448526
    10  Cl  -0.162814
    11  H    0.336728
    12  H    0.110977
    13  H    0.130715
    14  H    0.112217
    15  H    0.120255
    16  H    0.357120
    17  H    0.116882
    18  H    0.121197
    19  H    0.333159
    20  H    0.152524
    21  H    0.339967
    22  O   -0.535311
    23  C    0.070203
    24  C   -0.348160
    25  C    0.062551
    26  O   -0.540435
    27  C    0.054815
    28  O   -0.483173
    29  C    0.102143
    30  O   -0.446581
    31  Cl  -0.176191
    32  H    0.350298
    33  H    0.134626
    34  H    0.116855
    35  H    0.124705
    36  H    0.114602
    37  H    0.350957
    38  H    0.110669
    39  H    0.119722
    40  H    0.327549
    41  H    0.143416
    42  H    0.351400
 Sum of Mulliken charges =  -0.00000

 Dipole moment (field-independent basis, Debye):
    X=              0.0033    Y=             -3.0506    Z=              0.5050  Tot=              3.0921
  Exact polarizability: 180.190   7.630 138.424   1.143   1.490 131.963
 Approx polarizability: 177.446   9.148 162.789   5.201   3.254 155.876
   1 Symmetry operations used in ECPInt.
 ECPInt:  NShTT=   14196 NPrTT=   58316 LenC2=   12656 LenP2D=   35080.
 LDataN:  DoStor=T MaxTD1= 6 Len=  172
 Calling FoFJK, ICntrl=    100127 FMM=F ISym2X=0 I1Cent= 0 IOpClX= 0 NMat=1 NMatS=1 NMatT=0.
 Full mass-weighted force constant matrix:
 Low frequencies ---   -6.8328   -1.0670   -0.0027    0.0009    0.0020    4.0052
 Low frequencies ---   15.4012   24.8174   46.1209
 Diagonal vibrational polarizability:

                      1                      2                      3
                      A                      A                      A
 Frequencies --     14.8183                24.6820                46.1128
 Red. masses --      7.7038                 8.8815                 6.3827
 Frc consts  --      0.0010                 0.0032                 0.0080
 IR Inten    --      0.0542                 0.0811                 0.1763

                      4                      5                      6
                      A                      A                      A
 Frequencies --     68.2321                73.2810                89.4016
 Red. masses --      7.8823                 7.0010                 6.4786
 Frc consts  --      0.0216                 0.0222                 0.0305
 IR Inten    --      1.6008                 2.7626                 1.2877

                      7                      8                      9
                      A                      A                      A
 Frequencies --    105.2971               108.1336               126.7383
 Red. masses --      8.6243                 5.6182                 6.1230
 Frc consts  --      0.0563                 0.0387                 0.0579
 IR Inten    --      0.4317                12.8031                 1.1984

                     10                     11                     12
                      A                      A                      A
 Frequencies --    150.8691               168.0408               175.3817
 Red. masses --      4.2254                 4.5711                 3.2418
 Frc consts  --      0.0567                 0.0761                 0.0587
 IR Inten    --      4.2428                13.8713                10.4788

                     13                     14                     15
                      A                      A                      A
 Frequencies --    194.8609               221.3748               234.2072
 Red. masses --      4.8400                 4.1440                 4.0346
 Frc consts  --      0.1083                 0.1197                 0.1304
 IR Inten    --     11.1760                12.2939                 1.9678

                     16                     17                     18
                      A                      A                      A
 Frequencies --    246.8136               270.7621               278.9190
 Red. masses --      4.0744                 5.7509                 5.3022
 Frc consts  --      0.1462                 0.2484                 0.2430
 IR Inten    --      6.5660                 5.1884                 8.4008

                     19                     20                     21
                      A                      A                      A
 Frequencies --    292.5979               294.0021               307.1616
 Red. masses --      3.3059                 6.1177                 4.1507
 Frc consts  --      0.1668                 0.3116                 0.2307
 IR Inten    --     14.8501                19.2679                12.2039

                     22                     23                     24
                      A                      A                      A
 Frequencies --    324.6252               333.3711               337.1378
 Red. masses --      3.6681                 2.8122                 4.7396
 Frc consts  --      0.2277                 0.1841                 0.3174
 IR Inten    --     15.3817                 2.8151                 5.0559

                     25                     26                     27
                      A                      A                      A
 Frequencies --    372.0405               375.1005               411.3368
 Red. masses --      3.9618                 4.3906                 4.9926
 Frc consts  --      0.3231                 0.3640                 0.4977
 IR Inten    --      8.2497                10.6389                 2.2547

                     28                     29                     30
                      A                      A                      A
 Frequencies --    414.7788               430.0486               434.7338
 Red. masses --      4.0965                 4.4138                 4.1995
 Frc consts  --      0.4152                 0.4809                 0.4676
 IR Inten    --      1.4630                 3.1266                 8.1676

                     31                     32                     33
                      A                      A                      A
 Frequencies --    445.1913               452.3940               468.9280
 Red. masses --      3.6958                 4.3964                 1.1405
 Frc consts  --      0.4316                 0.5301                 0.1478
 IR Inten    --     20.1245                 3.8485               153.1341

                     34                     35                     36
                      A                      A                      A
 Frequencies --    515.0161               524.0680               558.7175
 Red. masses --      2.0927                 2.9407                 1.5112
 Frc consts  --      0.3270                 0.4758                 0.2779
 IR Inten    --     49.4037                 5.6661               297.1774

                     37                     38                     39
                      A                      A                      A
 Frequencies --    577.5375               653.0529               674.3347
 Red. masses --      1.1852                 1.1862                 3.8629
 Frc consts  --      0.2329                 0.2981                 1.0349
 IR Inten    --     75.1519               284.4602                48.2801

                     40                     41                     42
                      A                      A                      A
 Frequencies --    677.3276               713.3260               740.5673
 Red. masses --      3.7934                 1.2638                 4.2853
 Frc consts  --      1.0254                 0.3789                 1.3847
 IR Inten    --     10.0668               436.3499               124.6656

                     43                     44                     45
                      A                      A                      A
 Frequencies --    745.6789               795.5915               805.6073
 Red. masses --      3.3096                 2.8282                 2.8356
 Frc consts  --      1.0842                 1.0547                 1.0843
 IR Inten    --      5.5243                36.8381                 9.1894

                     46                     47                     48
                      A                      A                      A
 Frequencies --    882.0839               905.7224               910.6362
 Red. masses --      1.2506                 2.0264                 1.8212
 Frc consts  --      0.5733                 0.9794                 0.8898
 IR Inten    --    212.8270                46.4003                98.7579

                     49                     50                     51
                      A                      A                      A
 Frequencies --    940.0739               952.8632               968.7412
 Red. masses --      1.4065                 1.5211                 1.3614
 Frc consts  --      0.7324                 0.8137                 0.7527
 IR Inten    --     70.6654                22.5808                40.2949

                     52                     53                     54
                      A                      A                      A
 Frequencies --    983.1756              1001.1183              1037.2184
 Red. masses --      1.5439                 1.5084                 1.2465
 Frc consts  --      0.8793                 0.8907                 0.7901
 IR Inten    --     43.4186                11.1530                63.6760

                     55                     56                     57
                      A                      A                      A
 Frequencies --   1082.1651              1091.2011              1121.2561
 Red. masses --      6.5171                 5.5398                 5.7165
 Frc consts  --      4.4967                 3.8864                 4.2344
 IR Inten    --    125.7107                29.5173                12.2798

                     58                     59                     60
                      A                      A                      A
 Frequencies --   1126.9193              1141.5160              1152.2750
 Red. masses --      4.4712                 2.4483                 4.2646
 Frc consts  --      3.3455                 1.8797                 3.3361
 IR Inten    --     12.5620                24.2997                14.8006

                     61                     62                     63
                      A                      A                      A
 Frequencies --   1167.5696              1168.9223              1175.7369
 Red. masses --      2.1442                 4.3282                 2.5372
 Frc consts  --      1.7222                 3.4844                 2.0664
 IR Inten    --      2.6081                37.6878                63.7465

                     64                     65                     66
                      A                      A                      A
 Frequencies --   1178.7544              1182.9085              1191.5493
 Red. masses --      2.9090                 2.5649                 2.4716
 Frc consts  --      2.3814                 2.1146                 2.0675
 IR Inten    --     11.9197               128.1478               171.1561

                     67                     68                     69
                      A                      A                      A
 Frequencies --   1212.9929              1216.0293              1260.3499
 Red. masses --      1.7822                 1.5791                 1.1346
 Frc consts  --      1.5450                 1.3757                 1.0618
 IR Inten    --    347.0596                54.9819                 3.8072

                     70                     71                     72
                      A                      A                      A
 Frequencies --   1263.4260              1280.3086              1289.7832
 Red. masses --      1.2181                 1.6016                 1.2373
 Frc consts  --      1.1456                 1.5468                 1.2127
 IR Inten    --     30.6806                11.4051                18.2924

                     73                     74                     75
                      A                      A                      A
 Frequencies --   1312.4738              1323.8749              1350.9764
 Red. masses --      1.4495                 1.5481                 1.1833
 Frc consts  --      1.4711                 1.5987                 1.2724
 IR Inten    --     15.2760                 1.0623                24.4592

                     76                     77                     78
                      A                      A                      A
 Frequencies --   1356.3337              1366.1871              1371.1945
 Red. masses --      1.3068                 1.4046                 1.5092
 Frc consts  --      1.4165                 1.5446                 1.6719
 IR Inten    --     12.1141                 2.8097                33.4050

                     79                     80                     81
                      A                      A                      A
 Frequencies --   1388.6333              1390.0868              1423.5307
 Red. masses --      1.2456                 1.2605                 1.2079
 Frc consts  --      1.4151                 1.4350                 1.4422
 IR Inten    --      3.3656                 8.0053                25.3294

                     82                     83                     84
                      A                      A                      A
 Frequencies --   1430.3740              1437.5956              1438.9428
 Red. masses --      1.2531                 1.2948                 1.3392
 Frc consts  --      1.5105                 1.5766                 1.6337
 IR Inten    --     70.2215                47.7405                14.0099

                     85                     86                     87
                      A                      A                      A
 Frequencies --   1445.7493              1455.5685              1465.3045
 Red. masses --      1.4927                 1.2643                 1.2771
 Frc consts  --      1.8383                 1.5782                 1.6156
 IR Inten    --      3.3206                12.4166                27.7427

                     88                     89                     90
                      A                      A                      A
 Frequencies --   1479.4118              1485.4955              1498.0822
 Red. masses --      1.1968                 1.1884                 1.0817
 Frc consts  --      1.5433                 1.5450                 1.4303
 IR Inten    --     55.7209                 3.0662                 8.0879

                     91                     92                     93
                      A                      A                      A
 Frequencies --   1498.8627              1507.9276              1510.4831
 Red. masses --      1.0857                 1.0817                 1.0914
 Frc consts  --      1.4371                 1.4491                 1.4671
 IR Inten    --      8.0632                16.9814                 5.6528

                     94                     95                     96
                      A                      A                      A
 Frequencies --   1516.9106              1517.4295              1531.3918
 Red. masses --      1.0772                 1.0819                 1.1830
 Frc consts  --      1.4604                 1.4678                 1.6347
 IR Inten    --      6.5188                 8.6939                95.8775

                     97                     98                     99
                      A                      A                      A
 Frequencies --   1539.4957              1562.5815              3019.8948
 Red. masses --      1.1477                 1.1410                 1.0703
 Frc consts  --      1.6026                 1.6414                 5.7511
 IR Inten    --     59.0464               267.0276                35.1609

                    100                    101                    102
                      A                      A                      A
 Frequencies --   3030.1734              3044.2274              3045.5297
 Red. masses --      1.0657                 1.0631                 1.0620
 Frc consts  --      5.7653                 5.8047                 5.8036
 IR Inten    --     27.1834                57.4793                12.5364

                    103                    104                    105
                      A                      A                      A
 Frequencies --   3048.0763              3050.5678              3105.2412
 Red. masses --      1.0622                 1.0633                 1.1089
 Frc consts  --      5.8142                 5.8300                 6.2997
 IR Inten    --     39.3233                28.0056                 8.1261

                    106                    107                    108
                      A                      A                      A
 Frequencies --   3111.0805              3112.5393              3115.1631
 Red. masses --      1.1063                 1.1054                 1.1071
 Frc consts  --      6.3089                 6.3097                 6.3297
 IR Inten    --     18.7329                18.2317                31.2093

                    109                    110                    111
                      A                      A                      A
 Frequencies --   3119.7793              3131.2002              3148.0599
 Red. masses --      1.1072                 1.0993                 1.0901
 Frc consts  --      6.3492                 6.3501                 6.3651
 IR Inten    --     27.0479                13.6439                14.9694

                    112                    113                    114
                      A                      A                      A
 Frequencies --   3151.8295              3321.8509              3377.1999
 Red. masses --      1.0911                 1.0708                 1.0662
 Frc consts  --      6.3863                 6.9617                 7.1648
 IR Inten    --      5.2830                79.3247               892.6133

                    115                    116                    117
                      A                      A                      A
 Frequencies --   3455.0315              3461.5606              3607.9037
 Red. masses --      1.0660                 1.0671                 1.0653
 Frc consts  --      7.4976                 7.5333                 8.1705
 IR Inten    --    232.9139              1275.4305               149.3600

                    118                    119                    120
                      A                      A                      A
 Frequencies --   3625.9557              3702.0188              3752.0262
 Red. masses --      1.0658                 1.0655                 1.0661
 Frc consts  --      8.2557                 8.6034                 8.8428
 IR Inten    --    132.3040                87.3424                51.5255

                           ! Non-Optimized Parameters !
 Normal termination of Gaussian 16 at Thu Sep  1 01:54:30 2022.
