 Gaussian 16, Revision B.01,
 Gaussian 16:  ES64L-G16RevB.01 20-Dec-2017

 ----------------------------------------------------------------------
 #T wB97XD/def2svpp opt=tight freq int(grid=ultrafine) scf=(verytight,q
 c)
 ----------------------------------------------------------------------
 -----
 dimer
 -----
 Symbolic Z-matrix:
 Charge =  0 Multiplicity = 1

 SCF Done:  E(RwB97XD) =  -727.680456605     a.u. after    8 cycles
 SCF Done:  E(RwB97XD) =  -727.682853515     a.u. after    9 cycles
 SCF Done:  E(RwB97XD) =  -727.681879065     a.u. after   11 cycles
 SCF Done:  E(RwB97XD) =  -727.683413890     a.u. after    9 cycles
 SCF Done:  E(RwB97XD) =  -727.684155840     a.u. after    9 cycles
 SCF Done:  E(RwB97XD) =  -727.684565332     a.u. after    8 cycles
 SCF Done:  E(RwB97XD) =  -727.685024536     a.u. after    7 cycles
 SCF Done:  E(RwB97XD) =  -727.685147895     a.u. after    7 cycles
 SCF Done:  E(RwB97XD) =  -727.684929556     a.u. after    9 cycles
 SCF Done:  E(RwB97XD) =  -727.685306214     a.u. after    8 cycles
 SCF Done:  E(RwB97XD) =  -727.685357631     a.u. after    2 cycles
 SCF Done:  E(RwB97XD) =  -727.685358754     a.u. after    2 cycles
 SCF Done:  E(RwB97XD) =  -727.685359064     a.u. after    2 cycles
 SCF Done:  E(RwB97XD) =  -727.685359193     a.u. after    2 cycles
 SCF Done:  E(RwB97XD) =  -727.685359302     a.u. after    2 cycles
 SCF Done:  E(RwB97XD) =  -727.685359329     a.u. after    2 cycles
 SCF Done:  E(RwB97XD) =  -727.685359336     a.u. after    2 cycles
 SCF Done:  E(RwB97XD) =  -727.685359338     a.u. after    2 cycles
 SCF Done:  E(RwB97XD) =  -727.685359339     a.u. after    2 cycles
 Optimization completed.
    -- Stationary point found.
 Normal termination of Gaussian 16 at Tue Aug  9 17:09:24 2022.

 ---------------------------------------------------------------------
 #T Geom=AllCheck Guess=TCheck SCRF=Check GenChk RwB97XD/def2SVPP Freq
 ---------------------------------------------------------------------
 Structure from the checkpoint file:  "/scratch/user/peterchao1/peterchao1/6113319_1660079104000000020729302/Gau-58261.chk"
 -----
 dimer
 -----
 Charge =  0 Multiplicity = 1

                         Standard orientation:
 ---------------------------------------------------------------------
 Center     Atomic      Atomic             Coordinates (Angstroms)
 Number     Number       Type             X           Y           Z
 ---------------------------------------------------------------------
      1          6           0       -3.980884   -0.317101   -0.389677
      2          6           0       -2.489922   -0.072349   -0.117630
      3          7           0       -1.661713   -0.358065   -1.294718
      4          6           0       -2.296665    1.406263    0.274926
      5          8           0       -1.050878    1.697785    0.825861
      6          6           0       -2.045165   -0.995408    1.036109
      7          8           0       -0.665543   -1.157044    1.185400
      8          1           0       -4.588577   -0.207446    0.526408
      9          1           0       -4.141282   -1.335515   -0.785922
     10          1           0       -4.365273    0.402129   -1.135841
     11          1           0       -2.029674    0.128177   -2.114076
     12          1           0       -1.649149   -1.355627   -1.512070
     13          1           0       -3.054606    1.663047    1.036249
     14          1           0       -2.509755    2.036609   -0.617475
     15          1           0       -0.365948    1.623874    0.120697
     16          1           0       -2.450539   -2.008328    0.857116
     17          1           0       -2.506298   -0.622917    1.972906
     18          1           0       -0.189133   -0.299005    1.298895
     19          6           0        3.980873    0.317129    0.389719
     20          6           0        2.489920    0.072357    0.117646
     21          7           0        1.661693    0.358000    1.294739
     22          6           0        2.045156    0.995454   -1.036058
     23          8           0        0.665529    1.156981   -1.185425
     24          6           0        2.296691   -1.406240   -0.274973
     25          8           0        1.050906   -1.697754   -0.825923
     26          1           0        4.141247    1.335535    0.785995
     27          1           0        4.588580    0.207509   -0.526361
     28          1           0        4.365265   -0.402115    1.135869
     29          1           0        1.649070    1.355554    1.512122
     30          1           0        2.029670   -0.128249    2.114085
     31          1           0        2.506378    0.623063   -1.972851
     32          1           0        2.450434    2.008397   -0.856972
     33          1           0        0.189197    0.298903   -1.298938
     34          1           0        2.509785   -2.036621    0.617402
     35          1           0        3.054636   -1.662983   -1.036305
     36          1           0        0.365973   -1.623902   -0.120759
 ---------------------------------------------------------------------

 SCF Done:  E(RwB97XD) =  -727.685359339     a.u. after    1 cycles

 The electronic state is 1-A.
 Alpha  occ. eigenvalues --  -19.23937 -19.23933 -19.22239 -19.22238 -14.43071
 Alpha  occ. eigenvalues --  -14.43070 -10.33351 -10.33351 -10.32902 -10.32902
 Alpha  occ. eigenvalues --  -10.32712 -10.32712 -10.28995 -10.28995  -1.11493
 Alpha  occ. eigenvalues --   -1.10145  -1.09186  -1.08034  -0.99140  -0.98723
 Alpha  occ. eigenvalues --   -0.85899  -0.85174  -0.76781  -0.76597  -0.75922
 Alpha  occ. eigenvalues --   -0.75677  -0.66758  -0.66552  -0.62169  -0.61054
 Alpha  occ. eigenvalues --   -0.59493  -0.59191  -0.57251  -0.55580  -0.54805
 Alpha  occ. eigenvalues --   -0.54130  -0.52908  -0.52560  -0.50757  -0.50301
 Alpha  occ. eigenvalues --   -0.48802  -0.48073  -0.47672  -0.47592  -0.47063
 Alpha  occ. eigenvalues --   -0.46786  -0.46024  -0.45513  -0.42138  -0.41614
 Alpha  occ. eigenvalues --   -0.39457  -0.38577  -0.35141  -0.34687  -0.34375
 Alpha  occ. eigenvalues --   -0.33943  -0.32526  -0.32181
 Alpha virt. eigenvalues --    0.12207   0.12235   0.16524   0.16838   0.17425
 Alpha virt. eigenvalues --    0.17437   0.17564   0.18669   0.19662   0.19748
 Alpha virt. eigenvalues --    0.21625   0.21703   0.22907   0.23312   0.23349

 Mulliken charges:
               1
     1  C   -0.275354
     2  C   -0.212673
     3  N   -0.508612
     4  C    0.086293
     5  O   -0.519790
     6  C    0.092106
     7  O   -0.537627
     8  H    0.119276
     9  H    0.114269
    10  H    0.116067
    11  H    0.232695
    12  H    0.239172
    13  H    0.091482
    14  H    0.081437
    15  H    0.334712
    16  H    0.092293
    17  H    0.095157
    18  H    0.359085
    19  C   -0.275354
    20  C   -0.212673
    21  N   -0.508616
    22  C    0.092106
    23  O   -0.537626
    24  C    0.086293
    25  O   -0.519788
    26  H    0.114271
    27  H    0.119277
    28  H    0.116068
    29  H    0.239176
    30  H    0.232698
    31  H    0.095157
    32  H    0.092296
    33  H    0.359091
    34  H    0.081440
    35  H    0.091485
    36  H    0.334711
 Sum of Mulliken charges =   0.00000

 Dipole moment (field-independent basis, Debye):
    X=              0.0003    Y=             -0.0000    Z=              0.0001  Tot=              0.0003
  Exact polarizability: 141.371   0.731 105.357  -2.177  -0.374 103.281
 Approx polarizability: 128.380   0.031 116.151  -2.675   1.078 116.865
   1 Symmetry operations used in ECPInt.
 ECPInt:  NShTT=    8256 NPrTT=   33144 LenC2=    8049 LenP2D=   23446.
 LDataN:  DoStor=T MaxTD1= 6 Len=  172
 Calling FoFJK, ICntrl=    100127 FMM=F ISym2X=0 I1Cent= 0 IOpClX= 0 NMat=1 NMatS=1 NMatT=0.
 Full mass-weighted force constant matrix:
 Low frequencies ---  -14.4996   -1.7423    0.0007    0.0011    0.0014    7.3405
 Low frequencies ---   62.6008   79.1778   93.1419
 Diagonal vibrational polarizability:

                      1                      2                      3
                      A                      A                      A
 Frequencies --     62.6008                78.6969                93.1419
 Red. masses --      3.7312                 4.1386                 3.5728
 Frc consts  --      0.0086                 0.0151                 0.0183
 IR Inten    --      6.1746                 0.0000                 9.6316

                      4                      5                      6
                      A                      A                      A
 Frequencies --    106.7058               121.3093               143.9706
 Red. masses --      2.8745                 4.9948                 4.0519
 Frc consts  --      0.0193                 0.0433                 0.0495
 IR Inten    --      6.1846                 0.0000                 0.0000

                      7                      8                      9
                      A                      A                      A
 Frequencies --    167.7613               207.1115               236.4432
 Red. masses --      3.2538                 3.4080                 3.1492
 Frc consts  --      0.0540                 0.0861                 0.1037
 IR Inten    --      0.0000                 0.7967                 0.0000

                     10                     11                     12
                      A                      A                      A
 Frequencies --    244.3207               254.3560               260.2082
 Red. masses --      2.7370                 1.4936                 1.3411
 Frc consts  --      0.0963                 0.0569                 0.0535
 IR Inten    --      6.6797                 3.9087                 0.0000

                     13                     14                     15
                      A                      A                      A
 Frequencies --    273.5290               278.0649               295.4269
 Red. masses --      2.3532                 1.6401                 2.4286
 Frc consts  --      0.1037                 0.0747                 0.1249
 IR Inten    --      0.0000                 5.2293                 0.0000

                     16                     17                     18
                      A                      A                      A
 Frequencies --    299.1395               359.9812               370.0345
 Red. masses --      3.7677                 1.9885                 2.4079
 Frc consts  --      0.1986                 0.1518                 0.1943
 IR Inten    --     23.0051                 0.0000                 9.5819

                     19                     20                     21
                      A                      A                      A
 Frequencies --    376.8954               385.6735               404.2386
 Red. masses --      1.8808                 2.5518                 3.0740
 Frc consts  --      0.1574                 0.2236                 0.2960
 IR Inten    --      0.0000                 3.1394                 0.0000

                     22                     23                     24
                      A                      A                      A
 Frequencies --    422.2432               432.3930               440.7612
 Red. masses --      1.9609                 2.0453                 2.0234
 Frc consts  --      0.2060                 0.2253                 0.2316
 IR Inten    --      9.0099                 0.0000                18.9758

                     25                     26                     27
                      A                      A                      A
 Frequencies --    516.5659               537.6495               593.2862
 Red. masses --      2.4275                 2.5553                 3.2597
 Frc consts  --      0.3816                 0.4352                 0.6760
 IR Inten    --     32.9172                 0.0000                10.9703

                     28                     29                     30
                      A                      A                      A
 Frequencies --    595.4988               706.9248               785.7783
 Red. masses --      3.1329                 1.1308                 1.3624
 Frc consts  --      0.6546                 0.3329                 0.4956
 IR Inten    --      0.0000                 0.0000                78.5702

                     31                     32                     33
                      A                      A                      A
 Frequencies --    796.8989               806.9678               865.1897
 Red. masses --      1.9608                 3.6834                 1.2388
 Frc consts  --      0.7337                 1.4132                 0.5463
 IR Inten    --    250.4503                 0.0000               287.1074

                     34                     35                     36
                      A                      A                      A
 Frequencies --    896.0164               926.0399               930.9811
 Red. masses --      1.5153                 1.8114                 1.6637
 Frc consts  --      0.7168                 0.9152                 0.8496
 IR Inten    --      0.0000                92.6112                 0.0000

                     37                     38                     39
                      A                      A                      A
 Frequencies --    940.7331               947.8413               955.1512
 Red. masses --      1.5557                 1.5216                 1.3554
 Frc consts  --      0.8111                 0.8054                 0.7286
 IR Inten    --    169.2619                 0.0000               133.2036

                     40                     41                     42
                      A                      A                      A
 Frequencies --    977.4770               984.7251              1025.2055
 Red. masses --      1.5313                 1.4659                 1.4463
 Frc consts  --      0.8621                 0.8375                 0.8957
 IR Inten    --      0.0000                18.5716                68.6003

                     43                     44                     45
                      A                      A                      A
 Frequencies --   1025.6657              1044.7922              1110.9910
 Red. masses --      1.5031                 1.0703                 1.4197
 Frc consts  --      0.9316                 0.6884                 1.0324
 IR Inten    --      0.0012                 0.0000                 0.0000

                     46                     47                     48
                      A                      A                      A
 Frequencies --   1114.2158              1156.1651              1157.9337
 Red. masses --      1.4632                 2.2411                 4.2751
 Frc consts  --      1.0703                 1.7651                 3.3773
 IR Inten    --     11.3244                 0.0001               272.7112

                     49                     50                     51
                      A                      A                      A
 Frequencies --   1167.0553              1174.3786              1175.2666
 Red. masses --      5.3915                 4.6656                 3.9336
 Frc consts  --      4.3266                 3.7912                 3.2012
 IR Inten    --      0.0000                68.4047                 0.0002

                     52                     53                     54
                      A                      A                      A
 Frequencies --   1200.3180              1204.1679              1231.3578
 Red. masses --      2.4194                 1.7411                 1.4451
 Frc consts  --      2.0538                 1.4875                 1.2910
 IR Inten    --    312.6591                52.0051                 0.0000

                     55                     56                     57
                      A                      A                      A
 Frequencies --   1250.3541              1264.0116              1319.3916
 Red. masses --      1.5240                 1.2288                 1.5028
 Frc consts  --      1.4038                 1.1567                 1.5413
 IR Inten    --      0.0000               105.4146                 0.0000

                     58                     59                     60
                      A                      A                      A
 Frequencies --   1337.9025              1371.8068              1377.9929
 Red. masses --      1.6671                 1.3666                 1.5854
 Frc consts  --      1.7581                 1.5152                 1.7737
 IR Inten    --     21.7786                82.2347                 0.0000

                     61                     62                     63
                      A                      A                      A
 Frequencies --   1389.9846              1400.5994              1413.7994
 Red. masses --      1.5285                 1.4065                 1.2948
 Frc consts  --      1.7400                 1.6256                 1.5249
 IR Inten    --     10.6093                 0.0000                11.4267

                     64                     65                     66
                      A                      A                      A
 Frequencies --   1414.1526              1415.1996              1425.9048
 Red. masses --      1.3171                 1.3181                 1.3701
 Frc consts  --      1.5519                 1.5554                 1.6412
 IR Inten    --      0.0000                 0.0000                18.0117

                     67                     68                     69
                      A                      A                      A
 Frequencies --   1452.5180              1455.0682              1489.3200
 Red. masses --      1.3560                 1.3862                 1.0722
 Frc consts  --      1.6856                 1.7292                 1.4012
 IR Inten    --     93.4194                 0.0000                 3.5025

                     70                     71                     72
                      A                      A                      A
 Frequencies --   1490.0041              1490.5284              1490.6743
 Red. masses --      1.0796                 1.0860                 1.0864
 Frc consts  --      1.4122                 1.4215                 1.4224
 IR Inten    --      0.0000                 0.0000                18.7656

                     73                     74                     75
                      A                      A                      A
 Frequencies --   1500.4463              1502.6767              1506.9613
 Red. masses --      1.1005                 1.1058                 1.0872
 Frc consts  --      1.4598                 1.4712                 1.4546
 IR Inten    --      0.0000                25.8426                 8.0056

                     76                     77                     78
                      A                      A                      A
 Frequencies --   1507.9048              1534.5431              1546.1282
 Red. masses --      1.0899                 1.1245                 1.1317
 Frc consts  --      1.4601                 1.5602                 1.5939
 IR Inten    --      0.0000                 0.0000               250.1285

                     79                     80                     81
                      A                      A                      A
 Frequencies --   1664.3158              1664.8022              2967.7388
 Red. masses --      1.1001                 1.0989                 1.0705
 Frc consts  --      1.7954                 1.7945                 5.5550
 IR Inten    --      0.0006                69.9530               166.1135

                     82                     83                     84
                      A                      A                      A
 Frequencies --   2968.1257              3012.1778              3012.5979
 Red. masses --      1.0706                 1.0619                 1.0615
 Frc consts  --      5.5572                 5.6769                 5.6761
 IR Inten    --      0.0154               146.0502                 0.0008

                     85                     86                     87
                      A                      A                      A
 Frequencies --   3022.1770              3022.6227              3075.3718
 Red. masses --      1.0385                 1.0394                 1.1056
 Frc consts  --      5.5884                 5.5950                 6.1606
 IR Inten    --     77.1938                 0.0002                 0.0001

                     88                     89                     90
                      A                      A                      A
 Frequencies --   3075.7160              3083.3519              3083.3589
 Red. masses --      1.1055                 1.0972                 1.0973
 Frc consts  --      6.1617                 6.1456                 6.1466
 IR Inten    --     62.7765                17.3898                81.3081

                     91                     92                     93
                      A                      A                      A
 Frequencies --   3114.0019              3114.0976              3120.3807
 Red. masses --      1.1045                 1.1045                 1.1047
 Frc consts  --      6.3106                 6.3107                 6.3376
 IR Inten    --      0.0014                44.4573                 0.0235

                     94                     95                     96
                      A                      A                      A
 Frequencies --   3120.4493              3365.4887              3392.9078
 Red. masses --      1.1047                 1.0720                 1.0700
 Frc consts  --      6.3376                 7.1540                 7.2571
 IR Inten    --     48.9873                 0.0003               416.4905

                     97                     98                     99
                      A                      A                      A
 Frequencies --   3446.0332              3462.0690              3483.9109
 Red. masses --      1.0661                 1.0668                 1.0510
 Frc consts  --      7.4594                 7.5335                 7.5158
 IR Inten    --      0.0019              2166.3851                 4.6182

                    100                    101                    102
                      A                      A                      A
 Frequencies --   3483.9217              3568.6608              3568.7386
 Red. masses --      1.0510                 1.0940                 1.0939
 Frc consts  --      7.5157                 8.2089                 8.2085
 IR Inten    --      0.0235                 0.0016                 8.7646

                           ! Non-Optimized Parameters !
 Normal termination of Gaussian 16 at Tue Aug  9 17:18:59 2022.
