 Gaussian 16, Revision B.01,
 Gaussian 16:  ES64L-G16RevB.01 20-Dec-2017

 ----------------------------------------------------------------------
 #T wB97XD/def2svpp opt=tight freq int(grid=ultrafine) scf=(verytight,q
 c)
 ----------------------------------------------------------------------
 --------------
 Comment gs min
 --------------
 Symbolic Z-matrix:
 Charge =  0 Multiplicity = 1

 SCF Done:  E(RwB97XD) =  -308.103154491     a.u. after    7 cycles
 SCF Done:  E(RwB97XD) =  -308.106880502     a.u. after    7 cycles
 SCF Done:  E(RwB97XD) =  -308.107634264     a.u. after    8 cycles
 SCF Done:  E(RwB97XD) =  -308.108039650     a.u. after    9 cycles
 SCF Done:  E(RwB97XD) =  -308.108161875     a.u. after    6 cycles
 SCF Done:  E(RwB97XD) =  -308.108201716     a.u. after    5 cycles
 SCF Done:  E(RwB97XD) =  -308.108212654     a.u. after    4 cycles
 SCF Done:  E(RwB97XD) =  -308.108214035     a.u. after    2 cycles
 SCF Done:  E(RwB97XD) =  -308.108214319     a.u. after    3 cycles
 SCF Done:  E(RwB97XD) =  -308.108214390     a.u. after    2 cycles
 SCF Done:  E(RwB97XD) =  -308.108214398     a.u. after    2 cycles
 SCF Done:  E(RwB97XD) =  -308.108214407     a.u. after    2 cycles
 SCF Done:  E(RwB97XD) =  -308.108214407     a.u. after    2 cycles
 SCF Done:  E(RwB97XD) =  -308.108214407     a.u. after    2 cycles
 SCF Done:  E(RwB97XD) =  -308.108214408     a.u. after    2 cycles
 SCF Done:  E(RwB97XD) =  -308.108214407     a.u. after    2 cycles
 Optimization completed.
    -- Stationary point found.

 1\1\GINC-C128\FOpt\RwB97XD\def2SVPP\C5H14N2\PETERCHAO1\26-Jun-2023\0\\
 #T wB97XD/def2svpp opt=tight freq int(grid=ultrafine) scf=(verytight,q
 c)\\Comment gs min\\0,1\C,1.079596536,0.0073981353,-0.0822192103\C,2.6
 102136934,0.0374375078,-0.0146628489\C,3.0897611972,1.4947582602,0.045
 244522\C,3.0941906662,-0.7316442409,1.2311394563\N,2.6863898159,-0.093
 6958054,2.4784680486\C,3.1730035559,-0.6504056539,-1.2744439121\N,4.62
 51299832,-0.5917982321,-1.3635535013\H,0.6535955191,0.3823957508,0.862
 8837893\H,0.7106074113,-1.0234789194,-0.2365557502\H,0.7015575734,0.63

 Normal termination of Gaussian 16 at Mon Jun 26 17:31:48 2023.

 ---------------------------------------------------------------------
 #T Geom=AllCheck Guess=TCheck SCRF=Check GenChk RwB97XD/def2SVPP Freq
 ---------------------------------------------------------------------
 Structure from the checkpoint file:  "41.chk"
 --------------
 Comment gs min
 --------------
 Charge =  0 Multiplicity = 1

                         Standard orientation:
 ---------------------------------------------------------------------
 Center     Atomic      Atomic             Coordinates (Angstroms)
 Number     Number       Type             X           Y           Z
 ---------------------------------------------------------------------
      1          6           0       -0.592400    1.693246   -0.483092
      2          6           0       -0.002441    0.364390    0.000999
      3          6           0       -0.008798    0.332414    1.536016
      4          6           0       -0.830957   -0.810207   -0.557237
      5          7           0       -2.193792   -0.833641   -0.036430
      6          6           0        1.443171    0.247075   -0.521832
      7          7           0        2.137152   -0.937904   -0.037825
      8          1           0       -1.663299    1.745395   -0.226625
      9          1           0       -0.500114    1.790538   -1.580679
     10          1           0       -0.074963    2.554415   -0.022392
     11          1           0       -1.020933    0.536216    1.926003
     12          1           0        0.666067    1.104569    1.950114
     13          1           0        0.314441   -0.651715    1.921740
     14          1           0       -0.264639   -1.745242   -0.371808
     15          1           0       -0.895150   -0.688786   -1.654132
     16          1           0       -2.215890   -1.236506    0.900091
     17          1           0       -2.788518   -1.420327   -0.619168
     18          1           0        1.973394    1.196149   -0.279692
     19          1           0        1.406991    0.186548   -1.624914
     20          1           0        2.426172   -0.822103    0.932947
     21          1           0        2.981470   -1.109846   -0.580828
 ---------------------------------------------------------------------

 SCF Done:  E(RwB97XD) =  -308.108214407     a.u. after    1 cycles

 The electronic state is 1-A.
 Alpha  occ. eigenvalues --  -14.41249 -14.40604 -10.30687 -10.29618 -10.29201
 Alpha  occ. eigenvalues --  -10.27381 -10.26465  -0.97634  -0.95836  -0.87629
 Alpha  occ. eigenvalues --   -0.76665  -0.74511  -0.72624  -0.61165  -0.58341
 Alpha  occ. eigenvalues --   -0.56558  -0.54499  -0.53011  -0.51977  -0.48569
 Alpha  occ. eigenvalues --   -0.47714  -0.45738  -0.44462  -0.43413  -0.40344
 Alpha  occ. eigenvalues --   -0.39732  -0.39114  -0.32108  -0.29617
 Alpha virt. eigenvalues --    0.13015   0.15029   0.16490   0.17564   0.19707
 Alpha virt. eigenvalues --    0.20208   0.21219   0.22049   0.23480   0.24447
 Alpha virt. eigenvalues --    0.25557   0.26207   0.26582   0.27737   0.29306

 Mulliken charges:
               1
     1  C   -0.265884
     2  C   -0.218025
     3  C   -0.327920
     4  C   -0.056125
     5  N   -0.512928
     6  C   -0.045223
     7  N   -0.512962
     8  H    0.134958
     9  H    0.100915
    10  H    0.104079
    11  H    0.128183
    12  H    0.108995
    13  H    0.117328
    14  H    0.107246
    15  H    0.080755
    16  H    0.220110
    17  H    0.221030
    18  H    0.082142
    19  H    0.088185
    20  H    0.222422
    21  H    0.222719
 Sum of Mulliken charges =   0.00000

 Dipole moment (field-independent basis, Debye):
    X=              1.2426    Y=             -0.6922    Z=              0.1831  Tot=              1.4341
  Exact polarizability:  70.115   0.386  64.776   0.052  -0.247  65.614
 Approx polarizability:  69.465   0.029  67.074   0.029  -0.136  70.767
   1 Symmetry operations used in ECPInt.
 ECPInt:  NShTT=    2485 NPrTT=   10003 LenC2=    2479 LenP2D=    8164.
 LDataN:  DoStor=T MaxTD1= 6 Len=  172
 Calling FoFJK, ICntrl=    100127 FMM=F ISym2X=0 I1Cent= 0 IOpClX= 0 NMat=1 NMatS=1 NMatT=0.
 Full mass-weighted force constant matrix:
 Low frequencies ---   -4.6947    0.0001    0.0005    0.0008    4.5609    8.6353
 Low frequencies ---  122.7728  135.4287  216.2683
 Diagonal vibrational polarizability:

                      1                      2                      3
                      A                      A                      A
 Frequencies --    122.7708               135.4112               216.2669
 Red. masses --      2.3320                 2.7303                 1.3282
 Frc consts  --      0.0207                 0.0295                 0.0366
 IR Inten    --      3.9855                 1.7126                37.0686

                      4                      5                      6
                      A                      A                      A
 Frequencies --    220.0454               254.7593               263.7608
 Red. masses --      1.2133                 1.1199                 1.4184
 Frc consts  --      0.0346                 0.0428                 0.0581
 IR Inten    --     41.8993                12.5970                 5.6676

                      7                      8                      9
                      A                      A                      A
 Frequencies --    290.6882               331.7467               362.2399
 Red. masses --      2.4951                 1.0878                 2.1389
 Frc consts  --      0.1242                 0.0705                 0.1654
 IR Inten    --      5.0317                11.4617                 0.8329

                     10                     11                     12
                      A                      A                      A
 Frequencies --    366.5915               419.0866               476.8023
 Red. masses --      2.3287                 2.1124                 2.9176
 Frc consts  --      0.1844                 0.2186                 0.3908
 IR Inten    --      1.2481                 1.8415                 2.2807

                     13                     14                     15
                      A                      A                      A
 Frequencies --    575.4518               740.0885               838.1711
 Red. masses --      2.8383                 2.6883                 1.2394
 Frc consts  --      0.5538                 0.8676                 0.5130
 IR Inten    --     20.2006                 7.3474               107.3672

                     16                     17                     18
                      A                      A                      A
 Frequencies --    848.8469               896.9418               937.2738
 Red. masses --      1.2827                 1.6190                 1.6951
 Frc consts  --      0.5445                 0.7674                 0.8774
 IR Inten    --    102.3321                 3.9487                14.0388

                     19                     20                     21
                      A                      A                      A
 Frequencies --    954.7883               967.4259              1017.8468
 Red. masses --      1.6385                 1.3388                 1.3836
 Frc consts  --      0.8800                 0.7382                 0.8446
 IR Inten    --     20.8126                 3.5453                 7.6014

                     22                     23                     24
                      A                      A                      A
 Frequencies --   1038.6177              1118.3955              1130.0542
 Red. masses --      1.4091                 1.8110                 2.3931
 Frc consts  --      0.8956                 1.3346                 1.8005
 IR Inten    --     13.6909                 7.6378                28.1878

                     25                     26                     27
                      A                      A                      A
 Frequencies --   1132.8237              1192.0084              1250.3298
 Red. masses --      2.2756                 1.2170                 2.1704
 Frc consts  --      1.7206                 1.0188                 1.9992
 IR Inten    --      1.1625                 2.7545                 5.3636

                     28                     29                     30
                      A                      A                      A
 Frequencies --   1275.0008              1323.1153              1351.6254
 Red. masses --      2.1912                 1.9071                 1.2647
 Frc consts  --      2.0987                 1.9671                 1.3613
 IR Inten    --      1.9434                 0.1633                 1.4456

                     31                     32                     33
                      A                      A                      A
 Frequencies --   1368.6976              1402.7499              1412.3798
 Red. masses --      1.2653                 1.3962                 1.3362
 Frc consts  --      1.3966                 1.6187                 1.5704
 IR Inten    --      4.0492                13.1290                 7.2077

                     34                     35                     36
                      A                      A                      A
 Frequencies --   1433.0119              1451.1583              1479.6918
 Red. masses --      1.4898                 1.3966                 1.0628
 Frc consts  --      1.8025                 1.7328                 1.3711
 IR Inten    --      3.1127                 8.2464                 1.3256

                     37                     38                     39
                      A                      A                      A
 Frequencies --   1494.9072              1498.2146              1499.8479
 Red. masses --      1.0577                 1.0824                 1.0768
 Frc consts  --      1.3927                 1.4315                 1.4272
 IR Inten    --      0.8062                 6.4540                 3.5432

                     40                     41                     42
                      A                      A                      A
 Frequencies --   1515.7493              1521.3868              1673.4158
 Red. masses --      1.0777                 1.0756                 1.0947
 Frc consts  --      1.4588                 1.4669                 1.8061
 IR Inten    --      5.9173                20.2140                42.4595

                     43                     44                     45
                      A                      A                      A
 Frequencies --   1674.6885              2948.6605              3006.6849
 Red. masses --      1.0919                 1.0726                 1.0638
 Frc consts  --      1.8043                 5.4946                 5.6661
 IR Inten    --     24.0346                78.1992                40.7560

                     46                     47                     48
                      A                      A                      A
 Frequencies --   3018.7319              3023.0028              3066.5892
 Red. masses --      1.0378                 1.0393                 1.0950
 Frc consts  --      5.5720                 5.5959                 6.0673
 IR Inten    --     35.4566                15.8675                14.5872

                     49                     50                     51
                      A                      A                      A
 Frequencies --   3073.2993              3103.9756              3105.9823
 Red. masses --      1.1020                 1.1044                 1.1037
 Frc consts  --      6.1327                 6.2692                 6.2731
 IR Inten    --     43.1688                21.7097                38.7507

                     52                     53                     54
                      A                      A                      A
 Frequencies --   3122.9575              3139.7097              3503.3653
 Red. masses --      1.1035                 1.1031                 1.0519
 Frc consts  --      6.3409                 6.4068                 7.6070
 IR Inten    --     15.0596                10.1010                 0.2625

                     55                     56                     57
                      A                      A                      A
 Frequencies --   3506.3442              3585.6017              3588.7891
 Red. masses --      1.0515                 1.0929                 1.0935
 Frc consts  --      7.6166                 8.2789                 8.2975
 IR Inten    --      0.3742                 1.5496                 2.1600

 Optimization completed.
    -- Stationary point found.

 1\1\GINC-C128\Freq\RwB97XD\def2SVPP\C5H14N2\PETERCHAO1\26-Jun-2023\0\\
 #T Geom=AllCheck Guess=TCheck SCRF=Check GenChk RwB97XD/def2SVPP Freq\
 \Comment gs min\\0,1\C,1.079596536,0.0073981353,-0.0822192103\C,2.6102
 136934,0.0374375078,-0.0146628489\C,3.0897611972,1.4947582602,0.045244
 522\C,3.0941906662,-0.7316442409,1.2311394563\N,2.6863898159,-0.093695
 8054,2.4784680486\C,3.1730035559,-0.6504056539,-1.2744439121\N,4.62512
 99832,-0.5917982321,-1.3635535013\H,0.6535955191,0.3823957508,0.862883
 7893\H,0.7106074113,-1.0234789194,-0.2365557502\H,0.7015575734,0.63007

 Normal termination of Gaussian 16 at Mon Jun 26 17:33:35 2023.
