 Gaussian 16, Revision B.01,
 Gaussian 16:  ES64L-G16RevB.01 20-Dec-2017

 ----------------------------------------------------------------------
 #T wB97XD/def2svpp opt=tight freq int(grid=ultrafine) scf=(verytight,q
 c)
 ----------------------------------------------------------------------
 --------------
 Comment gs min
 --------------
 Symbolic Z-matrix:
 Charge =  0 Multiplicity = 1

 SCF Done:  E(RwB97XD) =  -458.366338901     a.u. after    8 cycles
 SCF Done:  E(RwB97XD) =  -458.371356313     a.u. after    9 cycles
 SCF Done:  E(RwB97XD) =  -458.371006125     a.u. after   11 cycles
 SCF Done:  E(RwB97XD) =  -458.372672230     a.u. after    8 cycles
 SCF Done:  E(RwB97XD) =  -458.373485399     a.u. after   11 cycles
 SCF Done:  E(RwB97XD) =  -458.373708833     a.u. after   11 cycles
 SCF Done:  E(RwB97XD) =  -458.375662793     a.u. after    8 cycles
 SCF Done:  E(RwB97XD) =  -458.375865770     a.u. after    7 cycles
 SCF Done:  E(RwB97XD) =  -458.375092426     a.u. after    9 cycles
 SCF Done:  E(RwB97XD) =  -458.375818088     a.u. after    7 cycles
 SCF Done:  E(RwB97XD) =  -458.375964743     a.u. after    2 cycles
 SCF Done:  E(RwB97XD) =  -458.375995978     a.u. after    4 cycles
 SCF Done:  E(RwB97XD) =  -458.376008242     a.u. after    3 cycles
 SCF Done:  E(RwB97XD) =  -458.376009097     a.u. after    2 cycles
 SCF Done:  E(RwB97XD) =  -458.376009193     a.u. after    2 cycles
 SCF Done:  E(RwB97XD) =  -458.376009211     a.u. after    2 cycles
 SCF Done:  E(RwB97XD) =  -458.376009216     a.u. after    2 cycles
 SCF Done:  E(RwB97XD) =  -458.376009214     a.u. after    2 cycles
 SCF Done:  E(RwB97XD) =  -458.376009215     a.u. after    2 cycles
 Optimization completed.
    -- Stationary point found.
 Normal termination of Gaussian 16 at Thu Aug  4 16:28:17 2022.

 ---------------------------------------------------------------------
 #T Geom=AllCheck Guess=TCheck SCRF=Check GenChk RwB97XD/def2SVPP Freq
 ---------------------------------------------------------------------
 Structure from the checkpoint file:  "/scratch/user/peterchao1/peterchao1/6097789_1659647563000000665642122/Gau-209696.chk"
 --------------
 Comment gs min
 --------------
 Charge =  0 Multiplicity = 1

                         Standard orientation:
 ---------------------------------------------------------------------
 Center     Atomic      Atomic             Coordinates (Angstroms)
 Number     Number       Type             X           Y           Z
 ---------------------------------------------------------------------
      1          7           0       -1.663840    1.392445   -0.845882
      2          6           0       -0.454520    0.593178   -1.047932
      3          6           0       -0.013698   -0.125626    0.243889
      4          6           0        0.835047   -1.356559   -0.121445
      5          7           0        2.038432   -1.009226   -0.884813
      6          6           0        0.801220    0.827080    1.143273
      7          8           0        1.934222    1.356879    0.523195
      8          6           0       -1.258996   -0.610627    1.023476
      9          8           0       -2.256320   -1.132588    0.196106
     10          1           0       -1.937240    1.850671   -1.714472
     11          1           0       -1.499386    2.132689   -0.162630
     12          1           0        0.399671    1.188034   -1.425644
     13          1           0       -0.700603   -0.166076   -1.811462
     14          1           0        0.183509   -2.090870   -0.638017
     15          1           0        1.173571   -1.830116    0.817073
     16          1           0        1.808972   -0.770581   -1.850126
     17          1           0        2.686798   -1.794746   -0.919095
     18          1           0        1.059920    0.279144    2.078282
     19          1           0        0.168729    1.680390    1.454902
     20          1           0        2.348224    0.616660    0.026247
     21          1           0       -1.649725    0.228626    1.636357
     22          1           0       -0.966372   -1.406955    1.730085
     23          1           0       -2.575744   -0.358411   -0.308609
 ---------------------------------------------------------------------

 SCF Done:  E(RwB97XD) =  -458.376009215     a.u. after    1 cycles

 The electronic state is 1-A.
 Alpha  occ. eigenvalues --  -19.22550 -19.21771 -14.44402 -14.43684 -10.32698
 Alpha  occ. eigenvalues --  -10.32684 -10.32402 -10.31996 -10.30154  -1.09679
 Alpha  occ. eigenvalues --   -1.08874  -0.99584  -0.98424  -0.87952  -0.76283
 Alpha  occ. eigenvalues --   -0.75247  -0.73416  -0.64467  -0.61036  -0.59998
 Alpha  occ. eigenvalues --   -0.59284  -0.57475  -0.54864  -0.53998  -0.51793
 Alpha  occ. eigenvalues --   -0.51399  -0.49103  -0.47830  -0.46391  -0.44263
 Alpha  occ. eigenvalues --   -0.42325  -0.41468  -0.39969  -0.34898  -0.33018
 Alpha  occ. eigenvalues --   -0.32823  -0.32545
 Alpha virt. eigenvalues --    0.12205   0.12336   0.15077   0.17094   0.18300
 Alpha virt. eigenvalues --    0.19824   0.20179   0.21110   0.21935   0.23776
 Alpha virt. eigenvalues --    0.24226   0.24966   0.25588   0.27333   0.28703

 Mulliken charges:
               1
     1  N   -0.544958
     2  C   -0.065073
     3  C   -0.355671
     4  C   -0.054671
     5  N   -0.543835
     6  C    0.096863
     7  O   -0.508501
     8  C    0.095286
     9  O   -0.502770
    10  H    0.235196
    11  H    0.236295
    12  H    0.109962
    13  H    0.103783
    14  H    0.119015
    15  H    0.101776
    16  H    0.240820
    17  H    0.240995
    18  H    0.080411
    19  H    0.082293
    20  H    0.324146
    21  H    0.083606
    22  H    0.095499
    23  H    0.329531
 Sum of Mulliken charges =   0.00000

 Dipole moment (field-independent basis, Debye):
    X=              0.6164    Y=             -0.2985    Z=             -2.1963  Tot=              2.3006
  Exact polarizability:  73.022  -3.665  70.820  -0.405  -0.586  70.619
 Approx polarizability:  75.585  -1.507  76.539   0.394  -0.227  76.140
   1 Symmetry operations used in ECPInt.
 ECPInt:  NShTT=    3403 NPrTT=   13689 LenC2=    3375 LenP2D=   10782.
 LDataN:  DoStor=T MaxTD1= 6 Len=  172
 Calling FoFJK, ICntrl=    100127 FMM=F ISym2X=0 I1Cent= 0 IOpClX= 0 NMat=1 NMatS=1 NMatT=0.
 Full mass-weighted force constant matrix:
 Low frequencies ---   -6.3866    0.0008    0.0009    0.0012   10.9130   18.1563
 Low frequencies ---   97.6085  147.3660  160.5127
 Diagonal vibrational polarizability:

                      1                      2                      3
                      A                      A                      A
 Frequencies --     97.5866               147.3572               160.4973
 Red. masses --      3.4375                 3.2857                 3.2492
 Frc consts  --      0.0193                 0.0420                 0.0493
 IR Inten    --     12.2219                 4.1588                 4.3517

                      4                      5                      6
                      A                      A                      A
 Frequencies --    191.2338               213.1994               280.0096
 Red. masses --      2.7208                 3.1674                 4.1500
 Frc consts  --      0.0586                 0.0848                 0.1917
 IR Inten    --      5.9688                 5.7282                 1.6424

                      7                      8                      9
                      A                      A                      A
 Frequencies --    299.7331               310.7447               318.8550
 Red. masses --      1.4461                 1.1495                 2.4996
 Frc consts  --      0.0765                 0.0654                 0.1497
 IR Inten    --     15.9184                20.5141                 1.0653

                     10                     11                     12
                      A                      A                      A
 Frequencies --    368.3224               391.0489               422.2367
 Red. masses --      1.9023                 2.0400                 4.4415
 Frc consts  --      0.1521                 0.1838                 0.4665
 IR Inten    --     18.8599                 5.2602                 3.6840

                     13                     14                     15
                      A                      A                      A
 Frequencies --    446.3998               508.8267               665.1539
 Red. masses --      3.2018                 2.9621                 2.7968
 Frc consts  --      0.3759                 0.4518                 0.7290
 IR Inten    --      6.6703                 8.8860                 1.3219

                     16                     17                     18
                      A                      A                      A
 Frequencies --    744.2585               790.7082               818.8914
 Red. masses --      2.1632                 1.1567                 1.1584
 Frc consts  --      0.7060                 0.4261                 0.4577
 IR Inten    --     10.9843                87.9922               174.8745

                     19                     20                     21
                      A                      A                      A
 Frequencies --    878.3496               880.8409               914.7317
 Red. masses --      1.3546                 1.3600                 1.4729
 Frc consts  --      0.6157                 0.6217                 0.7261
 IR Inten    --     84.7992                49.2622                12.5431

                     22                     23                     24
                      A                      A                      A
 Frequencies --    950.7109               971.3176              1029.3873
 Red. masses --      1.7210                 1.4546                 1.5582
 Frc consts  --      0.9165                 0.8086                 0.9728
 IR Inten    --     93.7103                22.8858                 3.5616

                     25                     26                     27
                      A                      A                      A
 Frequencies --   1096.7225              1104.8316              1120.2221
 Red. masses --      2.3217                 2.9681                 4.8319
 Frc consts  --      1.6453                 2.1346                 3.5725
 IR Inten    --      8.4194                 6.1841                39.4616

                     28                     29                     30
                      A                      A                      A
 Frequencies --   1148.7950              1157.2655              1176.7638
 Red. masses --      1.4871                 2.0616                 2.6119
 Frc consts  --      1.1563                 1.6268                 2.1310
 IR Inten    --     40.8983                19.4606                46.5621

                     31                     32                     33
                      A                      A                      A
 Frequencies --   1190.7434              1228.5804              1260.6820
 Red. masses --      2.4090                 1.5820                 1.0827
 Frc consts  --      2.0124                 1.4069                 1.0138
 IR Inten    --    118.3462                 1.6347                 0.1268

                     34                     35                     36
                      A                      A                      A
 Frequencies --   1299.5275              1331.8048              1341.9688
 Red. masses --      2.1776                 1.4332                 1.2214
 Frc consts  --      2.1667                 1.4977                 1.2960
 IR Inten    --      3.6742                 8.4731                 0.5378

                     37                     38                     39
                      A                      A                      A
 Frequencies --   1365.5405              1400.7931              1430.5768
 Red. masses --      1.2612                 1.3080                 1.3820
 Frc consts  --      1.3856                 1.5121                 1.6664
 IR Inten    --     12.3801                 2.4252                 5.0461

                     40                     41                     42
                      A                      A                      A
 Frequencies --   1441.9147              1459.8036              1476.0756
 Red. masses --      1.5550                 1.4376                 1.2116
 Frc consts  --      1.9048                 1.8051                 1.5554
 IR Inten    --     14.7794                 6.7838                89.5287

                     43                     44                     45
                      A                      A                      A
 Frequencies --   1502.1688              1509.2070              1520.8642
 Red. masses --      1.0918                 1.0876                 1.0706
 Frc consts  --      1.4516                 1.4595                 1.4590
 IR Inten    --      0.8233                 3.8462                27.1383

                     46                     47                     48
                      A                      A                      A
 Frequencies --   1525.6138              1527.7511              1666.7940
 Red. masses --      1.1135                 1.1759                 1.0904
 Frc consts  --      1.5269                 1.6171                 1.7849
 IR Inten    --     22.2260                68.2031                38.7541

                     49                     50                     51
                      A                      A                      A
 Frequencies --   1670.6658              2951.5516              2991.2196
 Red. masses --      1.0889                 1.0711                 1.0703
 Frc consts  --      1.7907                 5.4975                 5.6425
 IR Inten    --     48.1784                75.5936                63.2185

                     52                     53                     54
                      A                      A                      A
 Frequencies --   3005.2591              3023.7955              3047.8291
 Red. masses --      1.0673                 1.0625                 1.0945
 Frc consts  --      5.6795                 5.7237                 5.9905
 IR Inten    --     39.5694                33.6048                64.8980

                     55                     56                     57
                      A                      A                      A
 Frequencies --   3081.7619              3084.1027              3089.9707
 Red. masses --      1.1031                 1.1036                 1.0981
 Frc consts  --      6.1725                 6.1846                 6.1774
 IR Inten    --      3.6413                27.2559                59.2431

                     58                     59                     60
                      A                      A                      A
 Frequencies --   3465.0490              3498.0383              3504.0248
 Red. masses --      1.0664                 1.0520                 1.0521
 Frc consts  --      7.5441                 7.5845                 7.6111
 IR Inten    --    346.3278                 2.8514                 0.8783

                     61                     62                     63
                      A                      A                      A
 Frequencies --   3579.5249              3585.7969              3595.0919
 Red. masses --      1.0931                 1.0935                 1.0639
 Frc consts  --      8.2523                 8.2840                 8.1019
 IR Inten    --      6.2637                 6.8885               156.3455

                           ! Non-Optimized Parameters !
 Normal termination of Gaussian 16 at Thu Aug  4 16:31:05 2022.
