 Gaussian 16, Revision B.01,
 Gaussian 16:  ES64L-G16RevB.01 20-Dec-2017

 ----------------------------------------------------------------------
 #T wB97XD/def2svpp opt=tight freq int(grid=ultrafine) scf=(verytight,q
 c)
 ----------------------------------------------------------------------
 --------------
 Comment gs min
 --------------
 Symbolic Z-matrix:
 Charge =  1 Multiplicity = 2

 SCF Done:  E(UwB97XD) =  -1116.06894261     a.u. after   10 cycles
 SCF Done:  E(UwB97XD) =  -1116.07203564     a.u. after    8 cycles
 SCF Done:  E(UwB97XD) =  -1116.07272693     a.u. after    8 cycles
 SCF Done:  E(UwB97XD) =  -1116.07281117     a.u. after    8 cycles
 SCF Done:  E(UwB97XD) =  -1116.07308095     a.u. after    6 cycles
 SCF Done:  E(UwB97XD) =  -1116.07308896     a.u. after    3 cycles
 SCF Done:  E(UwB97XD) =  -1116.07309355     a.u. after    5 cycles
 SCF Done:  E(UwB97XD) =  -1116.07309235     a.u. after    3 cycles
 SCF Done:  E(UwB97XD) =  -1116.06437201     a.u. after   56 cycles
 SCF Done:  E(UwB97XD) =  -1116.07542015     a.u. after   13 cycles
 SCF Done:  E(UwB97XD) =  -1116.08195533     a.u. after    3 cycles
 SCF Done:  E(UwB97XD) =  -1116.08195980     a.u. after    3 cycles
 SCF Done:  E(UwB97XD) =  -1116.08196102     a.u. after    3 cycles
 SCF Done:  E(UwB97XD) =  -1116.08196126     a.u. after    2 cycles
 SCF Done:  E(UwB97XD) =  -1116.08196129     a.u. after    2 cycles
 SCF Done:  E(UwB97XD) =  -1116.08196128     a.u. after    2 cycles
 SCF Done:  E(UwB97XD) =  -1116.08196128     a.u. after    2 cycles
 SCF Done:  E(UwB97XD) =  -1116.08196128     a.u. after    2 cycles
 SCF Done:  E(UwB97XD) =  -1116.08196128     a.u. after    2 cycles
 Optimization completed.
    -- Stationary point found.
 Normal termination of Gaussian 16 at Tue Jul 11 00:01:50 2023.

 ---------------------------------------------------------------------
 #T Geom=AllCheck Guess=TCheck SCRF=Check GenChk UwB97XD/def2SVPP Freq
 ---------------------------------------------------------------------
 Structure from the checkpoint file:  "44.chk"
 --------------
 Comment gs min
 --------------
 Charge =  1 Multiplicity = 2

                         Standard orientation:
 ---------------------------------------------------------------------
 Center     Atomic      Atomic             Coordinates (Angstroms)
 Number     Number       Type             X           Y           Z
 ---------------------------------------------------------------------
      1          6           0        0.854161    1.669847   -1.007848
      2          6           0        0.104498    0.929490    0.071055
      3          6           0       -0.830620    1.789924    0.887636
      4          6           0       -0.938718   -0.181414   -0.909912
      5         17           0       -2.068010   -1.042594    0.008712
      6          6           0        0.932686   -0.024514    0.920039
      7         17           0        2.000064   -1.107552    0.019195
      8          1           0        0.197181    2.346236   -1.576781
      9          1           0        1.402590    1.005005   -1.693226
     10          1           0        1.612365    2.298854   -0.497948
     11          1           0       -1.581174    2.293576    0.255459
     12          1           0       -0.226024    2.593128    1.352322
     13          1           0       -1.342540    1.230918    1.686169
     14          1           0       -0.119526   -0.825318   -1.281860
     15          1           0       -1.416667    0.503964   -1.623036
     16          1           0        0.315175   -0.625011    1.603149
     17          1           0        1.581678    0.631119    1.535503
 ---------------------------------------------------------------------

 SCF Done:  E(UwB97XD) =  -1116.08196128     a.u. after    1 cycles

 The electronic state is 2-A.
 Alpha  occ. eigenvalues -- -101.91503-101.85030 -10.59331 -10.57931 -10.54325
 Alpha  occ. eigenvalues --  -10.48173 -10.47891  -9.82247  -9.75773  -7.57492
 Alpha  occ. eigenvalues --   -7.57129  -7.56428  -7.51153  -7.50287  -7.50084
 Alpha  occ. eigenvalues --   -1.21225  -1.15943  -1.09863  -0.98933  -0.96876
 Alpha  occ. eigenvalues --   -0.95871  -0.83431  -0.78915  -0.77362  -0.75313
 Alpha  occ. eigenvalues --   -0.73304  -0.71824  -0.69307  -0.66206  -0.65802
 Alpha  occ. eigenvalues --   -0.65494  -0.64254  -0.63357  -0.60189  -0.58336
 Alpha  occ. eigenvalues --   -0.55617  -0.55188
 Alpha virt. eigenvalues --   -0.08761  -0.06517  -0.04283  -0.02995   0.00285
 Alpha virt. eigenvalues --    0.01260   0.01851   0.03120   0.03953   0.04742
 Alpha virt. eigenvalues --    0.06556   0.07960   0.08628   0.10452   0.12070

  Beta  occ. eigenvalues -- -101.91317-101.84984 -10.58919 -10.57611 -10.54294
  Beta  occ. eigenvalues --  -10.48162 -10.47874  -9.82041  -9.75721  -7.57360
  Beta  occ. eigenvalues --   -7.56468  -7.56288  -7.51116  -7.50127  -7.50049
  Beta  occ. eigenvalues --   -1.20063  -1.15365  -1.09116  -0.98384  -0.95576
  Beta  occ. eigenvalues --   -0.95073  -0.82038  -0.78270  -0.75926  -0.74525
  Beta  occ. eigenvalues --   -0.72932  -0.71198  -0.68377  -0.65628  -0.65276
  Beta  occ. eigenvalues --   -0.64223  -0.63174  -0.62442  -0.59619  -0.55646
  Beta  occ. eigenvalues --   -0.55018
  Beta virt. eigenvalues --   -0.34929  -0.06428  -0.05651  -0.03356  -0.02549
  Beta virt. eigenvalues --    0.00563   0.01579   0.02153   0.03258   0.04105
  Beta virt. eigenvalues --    0.04910   0.06796   0.08187   0.08921   0.10806

 Mulliken charges and spin densities:
               1          2
     1  C   -0.277839   0.008190
     2  C   -0.379237   0.240177
     3  C   -0.273966   0.008011
     4  C   -0.153431   0.269700
     5  Cl   0.151318   0.263151
     6  C   -0.125310   0.011617
     7  Cl  -0.020109   0.063792
     8  H    0.183560   0.001401
     9  H    0.187818   0.002462
    10  H    0.206808   0.037171
    11  H    0.186870   0.008522
    12  H    0.203952   0.027573
    13  H    0.178468  -0.001660
    14  H    0.243373   0.011793
    15  H    0.244422   0.001667
    16  H    0.207028   0.001502
    17  H    0.236274   0.044931
 Sum of Mulliken charges =   1.00000   1.00000

 Dipole moment (field-independent basis, Debye):
    X=             -1.5121    Y=              2.9968    Z=             -0.2515  Tot=              3.3661
  Exact polarizability: 112.027   3.406  86.326   1.864  -0.722  64.990
 Approx polarizability: 107.928   6.151  90.426  -3.824   0.281  75.605
                          Isotropic Fermi Contact Couplings
        Atom                 a.u.       MegaHertz       Gauss      10(-4) cm-1
     1  C(13)             -0.00332      -3.73200      -1.33167      -1.24486
     2  C(13)              0.01531      17.21055       6.14115       5.74082
     3  C(13)             -0.00675      -7.58415      -2.70621      -2.52980
     4  C(13)              0.04960      55.76263      19.89749      18.60041
     5  Cl(35)             0.04508      19.76646       7.05317       6.59338
     6  C(13)             -0.00658      -7.39905      -2.64016      -2.46806

                      1                      2                      3
                      A                      A                      A
 Frequencies --     63.8900               156.2699               177.5926
 Red. masses --      9.6771                 2.8959                 3.7835
 Frc consts  --      0.0233                 0.0417                 0.0703
 IR Inten    --      0.9272                12.9094                10.9791

                      4                      5                      6
                      A                      A                      A
 Frequencies --    219.5021               232.0078               255.3276
 Red. masses --      3.9290                 1.4016                 1.9340
 Frc consts  --      0.1115                 0.0445                 0.0743
 IR Inten    --      5.0211                14.5145                50.8119

                      7                      8                      9
                      A                      A                      A
 Frequencies --    280.9710               291.9414               315.3242
 Red. masses --      1.1768                 4.0484                 2.5534
 Frc consts  --      0.0547                 0.2033                 0.1496
 IR Inten    --      3.7617                26.2615                 3.7160

                     10                     11                     12
                      A                      A                      A
 Frequencies --    374.6711               445.7741               480.9890
 Red. masses --      3.1183                 2.0568                 3.0312
 Frc consts  --      0.2579                 0.2408                 0.4132
 IR Inten    --     10.2550                12.4938                 0.4868

                     13                     14                     15
                      A                      A                      A
 Frequencies --    682.3348               768.6731               804.7903
 Red. masses --      1.3849                 3.3437                 2.0910
 Frc consts  --      0.3799                 1.1640                 0.7980
 IR Inten    --      4.1188                24.7451                81.0785

                     16                     17                     18
                      A                      A                      A
 Frequencies --    864.8617               879.5570               920.8098
 Red. masses --      2.2607                 5.4656                 1.3061
 Frc consts  --      0.9963                 2.4913                 0.6525
 IR Inten    --     14.0285                46.1795                 0.8963

                     19                     20                     21
                      A                      A                      A
 Frequencies --    975.5672               992.8947              1041.5391
 Red. masses --      1.9403                 1.3786                 1.4252
 Frc consts  --      1.0880                 0.8007                 0.9109
 IR Inten    --     16.1806                 0.6243               109.5345

                     22                     23                     24
                      A                      A                      A
 Frequencies --   1131.6487              1144.1833              1198.0991
 Red. masses --      1.0862                 1.1214                 1.2688
 Frc consts  --      0.8196                 0.8650                 1.0730
 IR Inten    --      1.6189                13.6469                17.4213

                     25                     26                     27
                      A                      A                      A
 Frequencies --   1212.5707              1250.6546              1334.0864
 Red. masses --      1.9045                 2.5280                 1.4583
 Frc consts  --      1.6498                 2.3297                 1.5292
 IR Inten    --      9.2452                41.3057                 5.2839

                     28                     29                     30
                      A                      A                      A
 Frequencies --   1383.0586              1402.0732              1414.8587
 Red. masses --      1.1787                 1.1522                 1.0867
 Frc consts  --      1.3284                 1.3345                 1.2817
 IR Inten    --     42.6554                22.5884                 8.8413

                     31                     32                     33
                      A                      A                      A
 Frequencies --   1423.2589              1436.5300              1459.6980
 Red. masses --      1.1163                 1.0761                 1.0773
 Frc consts  --      1.3323                 1.3084                 1.3525
 IR Inten    --      2.1836                10.3311                18.3460

                     34                     35                     36
                      A                      A                      A
 Frequencies --   1470.3761              1495.7023              3013.7714
 Red. masses --      1.0858                 1.0860                 1.0486
 Frc consts  --      1.3831                 1.4314                 5.6117
 IR Inten    --     16.8570                13.3953                29.8241

                     37                     38                     39
                      A                      A                      A
 Frequencies --   3022.9430              3031.5773              3039.4345
 Red. masses --      1.0535                 1.0537                 1.0575
 Frc consts  --      5.6719                 5.7059                 5.7559
 IR Inten    --     57.0162                49.6655                76.1097

                     40                     41                     42
                      A                      A                      A
 Frequencies --   3120.5034              3124.4821              3163.1080
 Red. masses --      1.0946                 1.0903                 1.0998
 Frc consts  --      6.2801                 6.2714                 6.4832
 IR Inten    --      3.3432                13.0868                 9.1549

                     43                     44                     45
                      A                      A                      A
 Frequencies --   3167.6571              3174.7678              3202.8721
 Red. masses --      1.1064                 1.1086                 1.1116
 Frc consts  --      6.5411                 6.5834                 6.7185
 IR Inten    --      5.2668                 0.6443                30.8714

 Optimization completed.
    -- Stationary point found.
 Normal termination of Gaussian 16 at Tue Jul 11 00:03:55 2023.
