 Gaussian 16, Revision B.01,
 Gaussian 16:  ES64L-G16RevB.01 20-Dec-2017

 ----------------------------------------------------------------------
 #T wB97XD/def2svpp opt=tight freq int(grid=ultrafine) scf=(verytight,q
 c) Volume=tight
 ----------------------------------------------------------------------
 -----
 Dimer
 -----
 Symbolic Z-matrix:
 Charge =  0 Multiplicity = 1

 SCF Done:  E(RwB97XD) =  -5541.70765366     a.u. after    8 cycles
 SCF Done:  E(RwB97XD) =  -5541.70950979     a.u. after   14 cycles
 SCF Done:  E(RwB97XD) =  -5541.68263676     a.u. after   17 cycles
 SCF Done:  E(RwB97XD) =  -5541.70790610     a.u. after   14 cycles
 SCF Done:  E(RwB97XD) =  -5541.70975125     a.u. after    8 cycles
 SCF Done:  E(RwB97XD) =  -5541.71168025     a.u. after    9 cycles
 SCF Done:  E(RwB97XD) =  -5541.69475477     a.u. after   15 cycles
 SCF Done:  E(RwB97XD) =  -5541.71114989     a.u. after   16 cycles
 SCF Done:  E(RwB97XD) =  -5541.71209052     a.u. after    6 cycles
 SCF Done:  E(RwB97XD) =  -5541.71258834     a.u. after    7 cycles
 SCF Done:  E(RwB97XD) =  -5541.71501879     a.u. after    2 cycles
 SCF Done:  E(RwB97XD) =  -5541.71501879     a.u. after    2 cycles
 SCF Done:  E(RwB97XD) =  -5541.71501877     a.u. after    2 cycles
 SCF Done:  E(RwB97XD) =  -5541.71501877     a.u. after    2 cycles
 SCF Done:  E(RwB97XD) =  -5541.71501878     a.u. after    2 cycles
 SCF Done:  E(RwB97XD) =  -5541.71501877     a.u. after    2 cycles
 SCF Done:  E(RwB97XD) =  -5541.71501877     a.u. after    2 cycles
 SCF Done:  E(RwB97XD) =  -5541.71501877     a.u. after    2 cycles
 SCF Done:  E(RwB97XD) =  -5541.71501877     a.u. after    2 cycles
 Optimization completed.
    -- Stationary point found.
 Normal termination of Gaussian 16 at Sun Feb  5 16:54:17 2023.

 ---------------------------------------------------------------------
 #T Geom=AllCheck Guess=TCheck SCRF=Check GenChk RwB97XD/def2SVPP Freq
 ---------------------------------------------------------------------
 Structure from the checkpoint file:  "18.chk"
 -----
 Dimer
 -----
 Charge =  0 Multiplicity = 1

                         Standard orientation:
 ---------------------------------------------------------------------
 Center     Atomic      Atomic             Coordinates (Angstroms)
 Number     Number       Type             X           Y           Z
 ---------------------------------------------------------------------
      1          6           0       -2.740140    2.376408    0.014790
      2          6           0       -2.633135    0.898460    0.433852
      3          6           0       -1.749167    0.792505    1.682422
      4          6           0       -4.033315    0.344773    0.723791
      5          6           0       -1.991880    0.179620   -0.759738
      6         35           0       -1.688640   -1.740068   -0.516848
      7          1           0       -1.744115    2.805419   -0.193787
      8          1           0       -3.202145    2.968857    0.823845
      9          1           0       -3.364163    2.496443   -0.888997
     10          1           0       -1.667372   -0.251558    2.029502
     11          1           0       -2.178268    1.390825    2.505442
     12          1           0       -0.730616    1.167643    1.479605
     13          1           0       -3.990622   -0.716364    1.023299
     14          1           0       -4.686184    0.423113   -0.164338
     15          1           0       -4.507530    0.911268    1.544377
     16          1           0       -1.003582    0.606912   -0.985101
     17          1           0       -2.627205    0.254236   -1.654876
     18          6           0        2.740144   -2.376407    0.014788
     19          6           0        2.633135   -0.898460    0.433852
     20          6           0        1.749164   -0.792510    1.682420
     21          6           0        4.033313   -0.344770    0.723794
     22          6           0        1.991880   -0.179620   -0.759738
     23         35           0        1.688640    1.740069   -0.516848
     24          1           0        3.364171   -2.496439   -0.888997
     25          1           0        1.744121   -2.805420   -0.193794
     26          1           0        3.202147   -2.968857    0.823844
     27          1           0        2.178269   -1.390823    2.505443
     28          1           0        0.730617   -1.167657    1.479603
     29          1           0        1.667359    0.251554    2.029498
     30          1           0        4.686183   -0.423104   -0.164334
     31          1           0        4.507529   -0.911267    1.544378
     32          1           0        3.990616    0.716365    1.023307
     33          1           0        1.003582   -0.606911   -0.985102
     34          1           0        2.627206   -0.254236   -1.654876
 ---------------------------------------------------------------------

 SCF Done:  E(RwB97XD) =  -5541.71501877     a.u. after    1 cycles

 The electronic state is 1-A.
 Alpha  occ. eigenvalues -- -483.04868-483.04868 -62.63054 -62.63054 -56.43813
 Alpha  occ. eigenvalues --  -56.43813 -56.43476 -56.43476 -56.43470 -56.43470
 Alpha  occ. eigenvalues --  -10.34378 -10.34378 -10.32061 -10.32060 -10.28842
 Alpha  occ. eigenvalues --  -10.28842 -10.28338 -10.28338 -10.27985 -10.27983
 Alpha  occ. eigenvalues --   -8.79979  -8.79979  -6.62472  -6.62472  -6.61241
 Alpha  occ. eigenvalues --   -6.61241  -6.61220  -6.61220  -2.72845  -2.72845
 Alpha  occ. eigenvalues --   -2.72499  -2.72499  -2.72482  -2.72482  -2.71502
 Alpha  occ. eigenvalues --   -2.71502  -2.71501  -2.71501  -0.94101  -0.93884
 Alpha  occ. eigenvalues --   -0.87496  -0.87435  -0.78114  -0.78072  -0.77783
 Alpha  occ. eigenvalues --   -0.77435  -0.75295  -0.75256  -0.62944  -0.62618
 Alpha  occ. eigenvalues --   -0.56387  -0.55370  -0.55364  -0.54873  -0.53307
 Alpha  occ. eigenvalues --   -0.53140  -0.50581  -0.50022  -0.48836  -0.48692
 Alpha  occ. eigenvalues --   -0.46336  -0.45644  -0.45072  -0.44907  -0.44816
 Alpha  occ. eigenvalues --   -0.44724  -0.42891  -0.42648  -0.41797  -0.40945
 Alpha  occ. eigenvalues --   -0.40715  -0.40582  -0.36569  -0.35672  -0.35496
 Alpha  occ. eigenvalues --   -0.34653
 Alpha virt. eigenvalues --    0.08026   0.08205   0.12072   0.13960   0.16634
 Alpha virt. eigenvalues --    0.17286   0.17414   0.17846   0.18196   0.18677
 Alpha virt. eigenvalues --    0.19223   0.19527   0.19947   0.21613   0.22054

 Mulliken charges:
               1
     1  C   -0.276090
     2  C   -0.253859
     3  C   -0.289098
     4  C   -0.268221
     5  C   -0.199082
     6  Br  -0.132266
     7  H    0.126011
     8  H    0.123279
     9  H    0.115551
    10  H    0.135147
    11  H    0.115431
    12  H    0.129008
    13  H    0.131310
    14  H    0.112626
    15  H    0.117257
    16  H    0.160603
    17  H    0.152395
    18  C   -0.276090
    19  C   -0.253859
    20  C   -0.289099
    21  C   -0.268221
    22  C   -0.199082
    23  Br  -0.132266
    24  H    0.115551
    25  H    0.126011
    26  H    0.123279
    27  H    0.115431
    28  H    0.129008
    29  H    0.135147
    30  H    0.112626
    31  H    0.117257
    32  H    0.131310
    33  H    0.160603
    34  H    0.152395
 Sum of Mulliken charges =  -0.00000

 Dipole moment (field-independent basis, Debye):
    X=              0.0000    Y=             -0.0000    Z=              0.0306  Tot=              0.0306
  Exact polarizability: 150.111 -12.363 152.157   0.000  -0.000 121.140
 Approx polarizability: 147.026  -6.467 173.142   0.000  -0.000 140.369
   1 Symmetry operations used in ECPInt.
 ECPInt:  NShTT=    8256 NPrTT=   36322 LenC2=    7893 LenP2D=   24145.
 LDataN:  DoStor=T MaxTD1= 6 Len=  172
 Calling FoFJK, ICntrl=    100127 FMM=F ISym2X=0 I1Cent= 0 IOpClX= 0 NMat=1 NMatS=1 NMatT=0.
 Full mass-weighted force constant matrix:
 Low frequencies ---   -6.5110   -4.5499   -3.2752   -0.0100   -0.0085   -0.0043
 Low frequencies ---   25.1149   38.7834   40.3771
 Diagonal vibrational polarizability:

                      1                      2                      3
                      A                      A                      A
 Frequencies --     24.8606                38.7201                40.2603
 Red. masses --      4.7213                 8.2791                 3.2637
 Frc consts  --      0.0017                 0.0073                 0.0031
 IR Inten    --      0.6633                 0.0210                 0.0014

                      4                      5                      6
                      A                      A                      A
 Frequencies --     49.5027                49.9831                58.9789
 Red. masses --      2.8777                 4.0157                 5.7030
 Frc consts  --      0.0042                 0.0059                 0.0117
 IR Inten    --      0.0144                 1.7660                 0.0197

                      7                      8                      9
                      A                      A                      A
 Frequencies --    113.1391               119.6557               182.7202
 Red. masses --      2.6729                 2.3787                 4.3956
 Frc consts  --      0.0202                 0.0201                 0.0865
 IR Inten    --      2.1436                 0.1990                 0.9398

                     10                     11                     12
                      A                      A                      A
 Frequencies --    185.8070               222.4875               231.8833
 Red. masses --      4.4104                 1.1004                 1.0579
 Frc consts  --      0.0897                 0.0321                 0.0335
 IR Inten    --      0.2866                 0.0148                 0.1941

                     13                     14                     15
                      A                      A                      A
 Frequencies --    266.5179               278.2014               285.2064
 Red. masses --      1.1809                 1.3107                 1.0931
 Frc consts  --      0.0494                 0.0598                 0.0524
 IR Inten    --      0.0853                 0.3862                 0.0110

                     16                     17                     18
                      A                      A                      A
 Frequencies --    293.6179               299.3949               304.2476
 Red. masses --      1.3235                 2.0939                 1.3849
 Frc consts  --      0.0672                 0.1106                 0.0755
 IR Inten    --      1.1026                 0.0036                 0.8771

                     19                     20                     21
                      A                      A                      A
 Frequencies --    342.6058               346.3894               398.6111
 Red. masses --      2.0561                 2.0600                 2.3460
 Frc consts  --      0.1422                 0.1456                 0.2196
 IR Inten    --      0.7689                 0.0234                 0.1069

                     22                     23                     24
                      A                      A                      A
 Frequencies --    399.3381               426.1157               426.8059
 Red. masses --      2.3274                 2.0306                 2.0168
 Frc consts  --      0.2187                 0.2172                 0.2165
 IR Inten    --      0.2621                 1.1117                 0.0060

                     25                     26                     27
                      A                      A                      A
 Frequencies --    468.8051               469.8820               682.6872
 Red. masses --      2.3552                 2.3452                 4.5890
 Frc consts  --      0.3050                 0.3051                 1.2601
 IR Inten    --      2.5191                 0.0709                 0.2489

                     28                     29                     30
                      A                      A                      A
 Frequencies --    685.9112               768.4716               769.4539
 Red. masses --      4.4965                 3.5671                 3.5914
 Frc consts  --      1.2464                 1.2411                 1.2528
 IR Inten    --     38.5356                 7.8314                 0.2726

                     31                     32                     33
                      A                      A                      A
 Frequencies --    873.5774               875.1881               935.6609
 Red. masses --      1.5221                 1.5150                 2.0192
 Frc consts  --      0.6844                 0.6837                 1.0415
 IR Inten    --      4.5821                 0.1558                21.6616

                     34                     35                     36
                      A                      A                      A
 Frequencies --    936.4219               962.4429               962.9322
 Red. masses --      2.0290                 1.5520                 1.5531
 Frc consts  --      1.0483                 0.8470                 0.8485
 IR Inten    --      1.7905                 1.4880                 0.2413

                     37                     38                     39
                      A                      A                      A
 Frequencies --    963.8075               965.6185               974.8516
 Red. masses --      1.5417                 1.5401                 1.2129
 Frc consts  --      0.8438                 0.8461                 0.6791
 IR Inten    --      0.2730                 2.6632                 0.0102

                     40                     41                     42
                      A                      A                      A
 Frequencies --    978.3502              1054.4011              1056.1943
 Red. masses --      1.2060                 1.4069                 1.4120
 Frc consts  --      0.6801                 0.9216                 0.9281
 IR Inten    --      0.1044                 0.0014                 0.8580

                     43                     44                     45
                      A                      A                      A
 Frequencies --   1057.2149              1058.7536              1162.4752
 Red. masses --      1.3547                 1.3583                 1.1850
 Frc consts  --      0.8921                 0.8971                 0.9435
 IR Inten    --      0.7255                 0.0526                 4.4709

                     46                     47                     48
                      A                      A                      A
 Frequencies --   1171.0552              1233.1316              1235.6729
 Red. masses --      1.2103                 1.8199                 1.9649
 Frc consts  --      0.9779                 1.6305                 1.7676
 IR Inten    --      0.7748                30.7053                 0.1838

                     49                     50                     51
                      A                      A                      A
 Frequencies --   1302.9945              1303.3060              1313.7983
 Red. masses --      2.7406                 2.7514                 1.4852
 Frc consts  --      2.7415                 2.7535                 1.5104
 IR Inten    --      5.6476                11.7930                31.6209

                     52                     53                     54
                      A                      A                      A
 Frequencies --   1319.9742              1323.9071              1336.1834
 Red. masses --      1.7215                 1.9329                 1.4891
 Frc consts  --      1.7672                 1.9961                 1.5664
 IR Inten    --      0.5815                 3.7551                 0.2643

                     55                     56                     57
                      A                      A                      A
 Frequencies --   1408.6413              1409.1919              1411.5489
 Red. masses --      1.2850                 1.2708                 1.3192
 Frc consts  --      1.5023                 1.4868                 1.5487
 IR Inten    --      6.4557                 9.5231                23.1551

                     58                     59                     60
                      A                      A                      A
 Frequencies --   1413.5825              1433.8215              1436.4464
 Red. masses --      1.3351                 1.2227                 1.2245
 Frc consts  --      1.5718                 1.4811                 1.4886
 IR Inten    --      3.9427                16.1223                10.4961

                     61                     62                     63
                      A                      A                      A
 Frequencies --   1462.8291              1469.5312              1473.1958
 Red. masses --      1.1038                 1.0926                 1.0438
 Frc consts  --      1.3917                 1.3902                 1.3347
 IR Inten    --      2.7996                 1.8329                 1.8464

                     64                     65                     66
                      A                      A                      A
 Frequencies --   1473.4977              1477.6032              1482.4104
 Red. masses --      1.0442                 1.0431                 1.0433
 Frc consts  --      1.3358                 1.3418                 1.3508
 IR Inten    --      0.0104                 1.9010                 0.3682

                     67                     68                     69
                      A                      A                      A
 Frequencies --   1482.7670              1484.3310              1501.8656
 Red. masses --      1.0447                 1.0414                 1.0664
 Frc consts  --      1.3533                 1.3519                 1.4172
 IR Inten    --      0.1146                 0.0000                17.3856

                     70                     71                     72
                      A                      A                      A
 Frequencies --   1502.7111              1503.4151              1504.1179
 Red. masses --      1.0715                 1.0700                 1.0686
 Frc consts  --      1.4256                 1.4249                 1.4244
 IR Inten    --      3.9909                 9.8657                 9.5583

                     73                     74                     75
                      A                      A                      A
 Frequencies --   1514.2694              1518.1405              3025.1383
 Red. masses --      1.0732                 1.0738                 1.0367
 Frc consts  --      1.4499                 1.4582                 5.5900
 IR Inten    --     13.6446                21.6922                 6.8250

                     76                     77                     78
                      A                      A                      A
 Frequencies --   3025.1457              3028.8457              3028.9858
 Red. masses --      1.0367                 1.0375                 1.0375
 Frc consts  --      5.5900                 5.6079                 5.6082
 IR Inten    --     35.4551                46.6627                 5.3685

                     79                     80                     81
                      A                      A                      A
 Frequencies --   3034.3358              3034.3581              3097.7406
 Red. masses --      1.0382                 1.0381                 1.0601
 Frc consts  --      5.6320                 5.6314                 5.9935
 IR Inten    --      5.4260                18.2459                 8.4189

                     82                     83                     84
                      A                      A                      A
 Frequencies --   3098.5434              3117.3524              3117.3589
 Red. masses --      1.0599                 1.1051                 1.1051
 Frc consts  --      5.9955                 6.3271                 6.3272
 IR Inten    --      9.2021                 0.1996                 2.4442

                     85                     86                     87
                      A                      A                      A
 Frequencies --   3120.0800              3120.1923              3122.8376
 Red. masses --      1.1044                 1.1043                 1.1053
 Frc consts  --      6.3342                 6.3343                 6.3510
 IR Inten    --     19.7371                47.2192                 2.0259

                     88                     89                     90
                      A                      A                      A
 Frequencies --   3122.9221              3125.9260              3126.1954
 Red. masses --      1.1052                 1.1043                 1.1041
 Frc consts  --      6.3506                 6.3573                 6.3577
 IR Inten    --      0.3994                33.7098                31.0107

                     91                     92                     93
                      A                      A                      A
 Frequencies --   3131.8489              3131.9576              3135.0677
 Red. masses --      1.1046                 1.1044                 1.1043
 Frc consts  --      6.3833                 6.3830                 6.3951
 IR Inten    --      1.0653                30.0497                 0.0358

                     94                     95                     96
                      A                      A                      A
 Frequencies --   3136.4405              3173.9804              3174.1313
 Red. masses --      1.1044                 1.1113                 1.1109
 Frc consts  --      6.4008                 6.5964                 6.5941
 IR Inten    --     25.5706                 0.5579                 0.8319

 Optimization completed.
    -- Stationary point found.
 Normal termination of Gaussian 16 at Sun Feb  5 17:02:22 2023.
