 Gaussian 16, Revision B.01,
 Gaussian 16:  ES64L-G16RevB.01 20-Dec-2017

 ----------------------------------------------------------------------
 #T wB97XD/def2svpp opt=tight freq int(grid=ultrafine) scf=(verytight,q
 c)
 ----------------------------------------------------------------------
 -----
 dimer
 -----
 Symbolic Z-matrix:
 Charge =  0 Multiplicity = 1

 SCF Done:  E(RwB97XD) =  -1194.46086110     a.u. after    8 cycles
 SCF Done:  E(RwB97XD) =  -1194.42657136     a.u. after   13 cycles
 SCF Done:  E(RwB97XD) =  -1194.45684023     a.u. after   13 cycles
 SCF Done:  E(RwB97XD) =  -1194.46217451     a.u. after    4 cycles
 SCF Done:  E(RwB97XD) =  -1194.46298445     a.u. after    9 cycles
 SCF Done:  E(RwB97XD) =  -1194.46271444     a.u. after    9 cycles
 SCF Done:  E(RwB97XD) =  -1194.46325160     a.u. after    7 cycles
 SCF Done:  E(RwB97XD) =  -1194.46347477     a.u. after    9 cycles
 SCF Done:  E(RwB97XD) =  -1194.46295205     a.u. after    9 cycles
 SCF Done:  E(RwB97XD) =  -1194.46333343     a.u. after   10 cycles
 SCF Done:  E(RwB97XD) =  -1194.46391932     a.u. after    2 cycles
 SCF Done:  E(RwB97XD) =  -1194.46391933     a.u. after    2 cycles
 SCF Done:  E(RwB97XD) =  -1194.46391933     a.u. after    2 cycles
 SCF Done:  E(RwB97XD) =  -1194.46391933     a.u. after    2 cycles
 SCF Done:  E(RwB97XD) =  -1194.46391933     a.u. after    2 cycles
 SCF Done:  E(RwB97XD) =  -1194.46391933     a.u. after    2 cycles
 SCF Done:  E(RwB97XD) =  -1194.46391933     a.u. after    2 cycles
 SCF Done:  E(RwB97XD) =  -1194.46391933     a.u. after    2 cycles
 SCF Done:  E(RwB97XD) =  -1194.46391933     a.u. after    2 cycles
 Optimization completed.
    -- Stationary point found.
 Normal termination of Gaussian 16 at Tue Aug  9 19:09:54 2022.

 ---------------------------------------------------------------------
 #T Geom=AllCheck Guess=TCheck SCRF=Check GenChk RwB97XD/def2SVPP Freq
 ---------------------------------------------------------------------
 Structure from the checkpoint file:  "/scratch/user/peterchao1/peterchao1/6113305_1660079070000000356980185/Gau-46477.chk"
 -----
 dimer
 -----
 Charge =  0 Multiplicity = 1

                         Standard orientation:
 ---------------------------------------------------------------------
 Center     Atomic      Atomic             Coordinates (Angstroms)
 Number     Number       Type             X           Y           Z
 ---------------------------------------------------------------------
      1          8           0       -1.894794    1.882470    1.152908
      2          6           0       -2.376648    0.564746    1.294590
      3          6           0       -2.768758   -0.110725   -0.045000
      4          6           0       -3.668708    0.837658   -0.869640
      5          8           0       -2.964497    1.995209   -1.283641
      6          6           0       -1.543596   -0.540573   -0.881222
      7          8           0       -0.773726    0.545655   -1.363944
      8          6           0       -3.543310   -1.388721    0.297788
      9          8           0       -4.689802   -1.072635    0.980783
     10          9           0       -3.873928   -2.065936   -0.861601
     11          1           0       -0.916606    1.866072    1.110086
     12          1           0       -3.279550    0.618835    1.922970
     13          1           0       -1.633372   -0.064600    1.818879
     14          1           0       -4.560361    1.112992   -0.278447
     15          1           0       -4.015773    0.328594   -1.782432
     16          1           0       -2.645404    2.415387   -0.456419
     17          1           0       -1.883114   -1.152800   -1.734401
     18          1           0       -0.870374   -1.161484   -0.264857
     19          1           0       -1.411874    1.244007   -1.649536
     20          1           0       -2.903528   -2.089369    0.872153
     21          1           0       -5.124029   -1.884167    1.279825
     22          8           0        4.781443   -1.336417    0.544523
     23          6           0        3.679313   -0.783678    1.225475
     24          6           0        2.737928    0.030675    0.308062
     25          6           0        3.474240    1.272254   -0.245448
     26          8           0        4.672105    0.948358   -0.916109
     27          6           0        2.235356   -0.855984   -0.854239
     28          8           0        3.274873   -1.243723   -1.727583
     29          6           0        1.567142    0.530342    1.167526
     30          8           0        0.732962    1.420583    0.555451
     31          9           0        0.831410   -0.574652    1.598986
     32          1           0        5.254315   -0.584042    0.139167
     33          1           0        4.021051   -0.137850    2.061692
     34          1           0        3.124270   -1.626656    1.667062
     35          1           0        3.751274    1.943301    0.586354
     36          1           0        2.793154    1.838741   -0.907909
     37          1           0        4.416295    0.360928   -1.653031
     38          1           0        1.502414   -0.309754   -1.470157
     39          1           0        1.722869   -1.745549   -0.440277
     40          1           0        3.917366   -1.737651   -1.183836
     41          1           0        1.943880    1.020374    2.081068
     42          1           0        0.313498    1.058022   -0.280866
 ---------------------------------------------------------------------

 SCF Done:  E(RwB97XD) =  -1194.46391933     a.u. after    1 cycles

 The electronic state is 1-A.
 Alpha  occ. eigenvalues --  -24.82075 -24.81769 -19.29683 -19.28623 -19.28007
 Alpha  occ. eigenvalues --  -19.26454 -19.26297 -19.26289 -19.26179 -19.26158
 Alpha  occ. eigenvalues --  -10.44262 -10.43948 -10.35804 -10.35331 -10.35249
 Alpha  occ. eigenvalues --  -10.35084 -10.34968 -10.34913 -10.32782 -10.32429
 Alpha  occ. eigenvalues --   -1.30791  -1.30552  -1.16256  -1.15981  -1.14732
 Alpha  occ. eigenvalues --   -1.14261  -1.12550  -1.11601  -1.11493  -1.11146
 Alpha  occ. eigenvalues --   -0.92367  -0.91781  -0.79149  -0.78669  -0.78264
 Alpha  occ. eigenvalues --   -0.77798  -0.77589  -0.77130  -0.69731  -0.68862
 Alpha  occ. eigenvalues --   -0.67612  -0.65796  -0.64437  -0.63668  -0.62792
 Alpha  occ. eigenvalues --   -0.62242  -0.61760  -0.61139  -0.61005  -0.59916
 Alpha  occ. eigenvalues --   -0.57122  -0.56660  -0.56050  -0.54457  -0.54014
 Alpha  occ. eigenvalues --   -0.53874  -0.52785  -0.52013  -0.51605  -0.50813
 Alpha  occ. eigenvalues --   -0.50513  -0.49785  -0.49446  -0.49084  -0.48793
 Alpha  occ. eigenvalues --   -0.48203  -0.46637  -0.46251  -0.45786  -0.45002
 Alpha  occ. eigenvalues --   -0.44323  -0.44267  -0.43006  -0.41426  -0.41064
 Alpha  occ. eigenvalues --   -0.40042  -0.38936  -0.37498  -0.36148  -0.35621
 Alpha  occ. eigenvalues --   -0.35469  -0.35388
 Alpha virt. eigenvalues --    0.11295   0.12681   0.13670   0.14193   0.14520
 Alpha virt. eigenvalues --    0.16575   0.17543   0.17797   0.18238   0.18354
 Alpha virt. eigenvalues --    0.19317   0.19595   0.19751   0.20162   0.20365

 Mulliken charges:
               1
     1  O   -0.532157
     2  C    0.038073
     3  C   -0.398265
     4  C    0.059161
     5  O   -0.522331
     6  C    0.059476
     7  O   -0.536886
     8  C    0.328143
     9  O   -0.424892
    10  F   -0.258495
    11  H    0.343154
    12  H    0.128923
    13  H    0.115194
    14  H    0.129398
    15  H    0.124649
    16  H    0.343416
    17  H    0.129549
    18  H    0.119066
    19  H    0.348733
    20  H    0.089138
    21  H    0.338773
    22  O   -0.511317
    23  C    0.071535
    24  C   -0.430123
    25  C    0.083080
    26  O   -0.514358
    27  C    0.026871
    28  O   -0.514421
    29  C    0.379046
    30  O   -0.504449
    31  F   -0.266959
    32  H    0.331066
    33  H    0.099948
    34  H    0.121944
    35  H    0.108660
    36  H    0.116626
    37  H    0.331981
    38  H    0.136652
    39  H    0.118911
    40  H    0.329890
    41  H    0.094491
    42  H    0.369103
 Sum of Mulliken charges =  -0.00000

 Dipole moment (field-independent basis, Debye):
    X=             -1.9262    Y=             -1.8077    Z=              2.6286  Tot=              3.7267
  Exact polarizability: 150.402   1.029 120.818  -0.024   0.256 119.421
 Approx polarizability: 143.716   0.595 139.293  -0.909  -0.126 136.464
   1 Symmetry operations used in ECPInt.
 ECPInt:  NShTT=   13530 NPrTT=   54282 LenC2=   12208 LenP2D=   33475.
 LDataN:  DoStor=T MaxTD1= 6 Len=  172
 Calling FoFJK, ICntrl=    100127 FMM=F ISym2X=0 I1Cent= 0 IOpClX= 0 NMat=1 NMatS=1 NMatT=0.
 Full mass-weighted force constant matrix:
 Low frequencies ---   -1.3234    0.0002    0.0005    0.0009    3.5995    5.7290
 Low frequencies ---   28.2146   32.2000   47.1765
 Diagonal vibrational polarizability:

                      1                      2                      3
                      A                      A                      A
 Frequencies --     28.2076                32.1828                47.1565
 Red. masses --      5.8971                 6.8891                 7.1155
 Frc consts  --      0.0028                 0.0042                 0.0093
 IR Inten    --      0.2619                 0.8369                 1.3061

                      4                      5                      6
                      A                      A                      A
 Frequencies --     62.8684                72.7290                91.1177
 Red. masses --      6.2356                 7.3266                 7.2772
 Frc consts  --      0.0145                 0.0228                 0.0356
 IR Inten    --      1.7582                 1.1030                 0.3961

                      7                      8                      9
                      A                      A                      A
 Frequencies --    103.5919               140.6888               151.3842
 Red. masses --      3.4442                 4.2174                 2.8270
 Frc consts  --      0.0218                 0.0492                 0.0382
 IR Inten    --      2.7724                 1.8213                 8.7282

                     10                     11                     12
                      A                      A                      A
 Frequencies --    178.0089               187.6048               198.9193
 Red. masses --      4.2019                 3.9944                 3.9763
 Frc consts  --      0.0784                 0.0828                 0.0927
 IR Inten    --      3.1222                 2.3864                 2.0704

                     13                     14                     15
                      A                      A                      A
 Frequencies --    214.5556               214.6956               227.9833
 Red. masses --      5.2361                 3.8722                 6.6085
 Frc consts  --      0.1420                 0.1052                 0.2024
 IR Inten    --     14.3652                 1.4017                 9.4692

                     16                     17                     18
                      A                      A                      A
 Frequencies --    230.7890               266.6896               292.8301
 Red. masses --      5.4224                 4.4005                 6.2894
 Frc consts  --      0.1702                 0.1844                 0.3178
 IR Inten    --      4.5171                 7.3423                 1.3137

                     19                     20                     21
                      A                      A                      A
 Frequencies --    302.4629               313.7773               329.1231
 Red. masses --      5.2143                 3.7796                 3.2936
 Frc consts  --      0.2811                 0.2192                 0.2102
 IR Inten    --      6.1350                20.7425                 2.3602

                     22                     23                     24
                      A                      A                      A
 Frequencies --    338.8667               348.4614               351.1983
 Red. masses --      3.4031                 3.0415                 3.7404
 Frc consts  --      0.2302                 0.2176                 0.2718
 IR Inten    --      0.8562                16.3684                 2.8885

                     25                     26                     27
                      A                      A                      A
 Frequencies --    368.7826               387.5599               401.8717
 Red. masses --      1.9605                 5.8631                 2.5631
 Frc consts  --      0.1571                 0.5189                 0.2439
 IR Inten    --     87.1174                10.9321                37.4520

                     28                     29                     30
                      A                      A                      A
 Frequencies --    422.2493               427.3531               454.8654
 Red. masses --      5.4583                 5.3695                 2.6094
 Frc consts  --      0.5734                 0.5778                 0.3181
 IR Inten    --      2.6122                 6.8472                 4.5447

                     31                     32                     33
                      A                      A                      A
 Frequencies --    456.1459               493.8241               500.0122
 Red. masses --      2.6079                 2.9727                 3.0880
 Frc consts  --      0.3197                 0.4271                 0.4549
 IR Inten    --      4.2286                 3.2490                10.2219

                     34                     35                     36
                      A                      A                      A
 Frequencies --    593.6270               600.4496               626.0981
 Red. masses --      6.1969                 7.1384                 1.1471
 Frc consts  --      1.2866                 1.5164                 0.2649
 IR Inten    --     27.8568                 1.2580               270.7130

                     37                     38                     39
                      A                      A                      A
 Frequencies --    636.7675               675.8353               721.6736
 Red. masses --      1.1444                 1.1896                 1.7018
 Frc consts  --      0.2734                 0.3201                 0.5222
 IR Inten    --    291.0560               140.4619               117.9523

                     40                     41                     42
                      A                      A                      A
 Frequencies --    729.8915               773.3811               783.7518
 Red. masses --      3.9847                 2.2210                 2.9818
 Frc consts  --      1.2507                 0.7827                 1.0791
 IR Inten    --     60.3246               115.0745                25.0864

                     43                     44                     45
                      A                      A                      A
 Frequencies --    791.6191               908.5192               919.9579
 Red. masses --      2.0805                 1.2888                 1.2346
 Frc consts  --      0.7681                 0.6268                 0.6156
 IR Inten    --     82.8330               180.2532                98.3017

                     46                     47                     48
                      A                      A                      A
 Frequencies --    955.7884               964.5340               969.2970
 Red. masses --      1.4833                 1.3566                 1.7515
 Frc consts  --      0.7984                 0.7436                 0.9696
 IR Inten    --     24.7290                21.5495                14.4356

                     49                     50                     51
                      A                      A                      A
 Frequencies --    971.5336               975.7497               978.5003
 Red. masses --      2.1842                 1.7240                 1.8137
 Frc consts  --      1.2147                 0.9671                 1.0232
 IR Inten    --     17.7951                39.8954                13.0881

                     52                     53                     54
                      A                      A                      A
 Frequencies --   1000.1806              1021.4172              1053.6030
 Red. masses --      1.7428                 1.9791                 4.8882
 Frc consts  --      1.0272                 1.2165                 3.1971
 IR Inten    --     15.9061               305.7482               113.9651

                     55                     56                     57
                      A                      A                      A
 Frequencies --   1093.5096              1103.0522              1113.3655
 Red. masses --      5.9421                 5.1379                 5.5556
 Frc consts  --      4.1863                 3.6832                 4.0575
 IR Inten    --     84.9830                20.4229                20.0162

                     58                     59                     60
                      A                      A                      A
 Frequencies --   1122.0182              1126.0544              1137.1021
 Red. masses --      5.6641                 5.1672                 5.1846
 Frc consts  --      4.2012                 3.8603                 3.9497
 IR Inten    --     11.6339                 2.3863                18.6759

                     61                     62                     63
                      A                      A                      A
 Frequencies --   1171.6761              1173.9883              1182.1391
 Red. masses --      2.0208                 2.3611                 2.2505
 Frc consts  --      1.6345                 1.9173                 1.8530
 IR Inten    --    198.9536                58.8911                16.5924

                     64                     65                     66
                      A                      A                      A
 Frequencies --   1185.5179              1194.0247              1202.6731
 Red. masses --      1.9199                 2.0814                 1.9117
 Frc consts  --      1.5898                 1.7483                 1.6292
 IR Inten    --     40.9331                91.8817                70.2834

                     67                     68                     69
                      A                      A                      A
 Frequencies --   1236.9543              1252.9630              1263.1493
 Red. masses --      2.8751                 1.4784                 1.6704
 Frc consts  --      2.5918                 1.3675                 1.5703
 IR Inten    --    127.6560               117.6570                47.5214

                     70                     71                     72
                      A                      A                      A
 Frequencies --   1271.3687              1279.2444              1324.1031
 Red. masses --      1.1138                 1.2017                 1.6859
 Frc consts  --      1.0607                 1.1586                 1.7415
 IR Inten    --     16.1055                83.8028                35.5816

                     73                     74                     75
                      A                      A                      A
 Frequencies --   1331.4306              1338.7796              1367.8427
 Red. masses --      1.4999                 1.4828                 1.5237
 Frc consts  --      1.5666                 1.5659                 1.6796
 IR Inten    --     10.6285                 8.5552                43.9456

                     76                     77                     78
                      A                      A                      A
 Frequencies --   1390.0223              1392.6549              1393.7773
 Red. masses --      1.2786                 1.2526                 1.2790
 Frc consts  --      1.4555                 1.4314                 1.4639
 IR Inten    --      9.1528                 3.1089                 5.7334

                     79                     80                     81
                      A                      A                      A
 Frequencies --   1397.8147              1409.6589              1412.0011
 Red. masses --      1.2373                 1.2204                 1.2199
 Frc consts  --      1.4244                 1.4288                 1.4330
 IR Inten    --      9.1596                 3.6869                21.0986

                     82                     83                     84
                      A                      A                      A
 Frequencies --   1425.8295              1458.6956              1461.6371
 Red. masses --      1.4004                 1.4358                 1.2062
 Frc consts  --      1.6774                 1.8000                 1.5182
 IR Inten    --      6.5299                 3.1311                18.8329

                     85                     86                     87
                      A                      A                      A
 Frequencies --   1469.7772              1470.5586              1475.1901
 Red. masses --      1.2918                 1.2501                 1.2650
 Frc consts  --      1.6441                 1.5928                 1.6220
 IR Inten    --     41.3473                12.6235                52.9313

                     88                     89                     90
                      A                      A                      A
 Frequencies --   1485.5379              1493.5285              1501.4964
 Red. masses --      1.4765                 1.2203                 1.0887
 Frc consts  --      1.9198                 1.6038                 1.4462
 IR Inten    --     80.5990                94.2867                22.9672

                     91                     92                     93
                      A                      A                      A
 Frequencies --   1502.9785              1507.2956              1507.6701
 Red. masses --      1.1660                 1.1594                 1.0970
 Frc consts  --      1.5518                 1.5519                 1.4692
 IR Inten    --     25.9079                66.6663                56.0772

                     94                     95                     96
                      A                      A                      A
 Frequencies --   1512.3720              1514.0057              1528.9110
 Red. masses --      1.0794                 1.1011                 1.1275
 Frc consts  --      1.4546                 1.4871                 1.5528
 IR Inten    --     15.7604                24.0370                12.2734

                     97                     98                     99
                      A                      A                      A
 Frequencies --   1531.4409              1561.1492              2994.9381
 Red. masses --      1.0911                 1.1281                 1.0715
 Frc consts  --      1.5076                 1.6199                 5.6628
 IR Inten    --     13.5421                85.4246                47.1589

                    100                    101                    102
                      A                      A                      A
 Frequencies --   3021.5987              3032.1742              3038.5664
 Red. masses --      1.0867                 1.0667                 1.0627
 Frc consts  --      5.8455                 5.7784                 5.7811
 IR Inten    --     42.2763                34.7187                40.8868

                    103                    104                    105
                      A                      A                      A
 Frequencies --   3049.5266              3056.6873              3060.9081
 Red. masses --      1.0643                 1.0602                 1.0641
 Frc consts  --      5.8315                 5.8363                 5.8740
 IR Inten    --     27.6978                56.1522                71.9155

                    106                    107                    108
                      A                      A                      A
 Frequencies --   3089.8180              3103.0501              3118.3381
 Red. masses --      1.0888                 1.1074                 1.1103
 Frc consts  --      6.1243                 6.2825                 6.3610
 IR Inten    --    310.7500                76.9892                22.3496

                    109                    110                    111
                      A                      A                      A
 Frequencies --   3120.8772              3121.7014              3127.4158
 Red. masses --      1.0974                 1.0910                 1.0890
 Frc consts  --      6.2975                 6.2640                 6.2754
 IR Inten    --     41.7673               234.8771               230.6638

                    112                    113                    114
                      A                      A                      A
 Frequencies --   3130.8516              3135.0422              3400.1845
 Red. masses --      1.1035                 1.1067                 1.0663
 Frc consts  --      6.3731                 6.4089                 7.2636
 IR Inten    --     90.6286                49.4462               344.7465

                    115                    116                    117
                      A                      A                      A
 Frequencies --   3533.0704              3562.0988              3590.1197
 Red. masses --      1.0665                 1.0653                 1.0663
 Frc consts  --      7.8434                 7.9639                 8.0974
 IR Inten    --    817.9287               326.2303                83.5651

                    118                    119                    120
                      A                      A                      A
 Frequencies --   3622.5173              3630.9062              3765.1453
 Red. masses --      1.0650                 1.0650                 1.0661
 Frc consts  --      8.2343                 8.2724                 8.9049
 IR Inten    --    172.0205               181.4232                78.9180

 Optimization completed.
    -- Stationary point found.
 Normal termination of Gaussian 16 at Tue Aug  9 19:30:48 2022.
