 Gaussian 16, Revision B.01,
 Gaussian 16:  ES64L-G16RevB.01 20-Dec-2017

 --------------------------------------------------------------
 #T wB97XD//def2svpp Volume=tight Geom=AllCheckpoint Guess=Read
 --------------------------------------------------------------
 Structure from the checkpoint file:  "monomer.chk"
 -------
 Monomer
 -------
 Charge =  0 Multiplicity = 1

                         Standard orientation:
 ---------------------------------------------------------------------
 Center     Atomic      Atomic             Coordinates (Angstroms)
 Number     Number       Type             X           Y           Z
 ---------------------------------------------------------------------
      1          6           0       -1.513653   -1.012234   -0.490450
      2          6           0       -0.619185    0.222556   -0.402922
      3          6           0       -1.178691    1.259625    0.580978
      4          6           0        0.786128   -0.174881    0.054384
      5          7           0        1.807166    0.494351   -0.554954
      6          8           0        0.979763   -0.998432    0.923665
      7          1           0       -2.541035   -0.727713   -0.776118
      8          1           0       -1.543733   -1.524579    0.485022
      9          1           0       -1.133947   -1.731150   -1.236205
     10          1           0       -0.553577    0.690346   -1.402652
     11          1           0       -2.191524    1.575916    0.277161
     12          1           0       -0.538506    2.157576    0.629724
     13          1           0       -1.239356    0.827338    1.594477
     14          1           0        1.650623    1.182079   -1.278765
     15          1           0        2.755193    0.306790   -0.249231
 ---------------------------------------------------------------------

 SCF Done:  E(RwB97XD) =  -287.524253187     A.U. after    1 cycles

 The electronic state is 1-A.
 Alpha  occ. eigenvalues --  -19.21231 -14.45967 -10.39316 -10.30801 -10.28972
 Alpha  occ. eigenvalues --  -10.28060  -1.12178  -0.99227  -0.89158  -0.77559
 Alpha  occ. eigenvalues --   -0.72776  -0.65695  -0.61614  -0.58224  -0.52984
 Alpha  occ. eigenvalues --   -0.51975  -0.49971  -0.47304  -0.45888  -0.44416
 Alpha  occ. eigenvalues --   -0.42542  -0.41940  -0.35087  -0.32944
 Alpha virt. eigenvalues --    0.10945   0.12266   0.15683   0.17800   0.19521
 Alpha virt. eigenvalues --    0.20356   0.21345   0.22971   0.24503   0.25429
 Alpha virt. eigenvalues --    0.27805   0.29891   0.33720   0.37854   0.46209

 Mulliken charges:
               1
     1  C   -0.293995
     2  C   -0.250502
     3  C   -0.296120
     4  C    0.173119
     5  N   -0.419066
     6  O   -0.267589
     7  H    0.115328
     8  H    0.140344
     9  H    0.121953
    10  H    0.086717
    11  H    0.126393
    12  H    0.116177
    13  H    0.136013
    14  H    0.253217
    15  H    0.258011
 Sum of Mulliken charges =  -0.00000

 Dipole moment (field-independent basis, Debye):
    X=              0.2865    Y=              2.6496    Z=             -2.5044  Tot=              3.6571
 Evaluate density.
 Using the total density.
 Monte-Carlo method of calculating molar volume:
 based on  0.001 e/bohr**3 density envelope.
 Number of points per bohr**3 =  100 CutOff= 1.00D-04
 Using the SCF density.
 There are      1682 points.  Will hold      1682 in memory.
 LenV=  1048376477 MDV=  1048576000.
 Box volume = 4762.446 fraction occupied=0.178
 Integrated density= 4.1738263719817112D+01 error=-6.2617362801828875D+00

 Normal termination of Gaussian 16 at Tue Apr  2 13:48:49 2024.
