 Gaussian 16, Revision B.01,
 Gaussian 16:  ES64L-G16RevB.01 20-Dec-2017

 --------------------------------------------------------------
 #T wB97XD/def2svpp freq int(grid=ultrafine) scf=(verytight,qc)
 --------------------------------------------------------------
 -----
 dimer
 -----
 Symbolic Z-matrix:
 Charge =  0 Multiplicity = 1

                         Standard orientation:
 ---------------------------------------------------------------------
 Center     Atomic      Atomic             Coordinates (Angstroms)
 Number     Number       Type             X           Y           Z
 ---------------------------------------------------------------------
      1          9           0       -2.035741    1.197945   -0.545782
      2          6           0       -2.020951    0.001577    0.000738
      3          9           0       -1.576894    0.086135    1.235910
      4          9           0       -3.239310   -0.495425    0.005700
      5          9           0       -1.230513   -0.789946   -0.696613
      6          9           0        2.030335   -0.650427   -1.143875
      7          6           0        2.020568   -0.001561   -0.000180
      8          9           0        1.576833   -0.793005    0.951952
      9          9           0        3.241656    0.393617    0.291067
     10          9           0        1.233890    1.051096   -0.098731
 ---------------------------------------------------------------------

 SCF Done:  E(RwB97XD) =  -874.078788786     a.u. after    7 cycles

 The electronic state is 1-A.
 Alpha  occ. eigenvalues --  -24.88317 -24.88306 -24.88215 -24.88212 -24.88196
 Alpha  occ. eigenvalues --  -24.88193 -24.88187 -24.88175 -10.64181 -10.64173
 Alpha  occ. eigenvalues --   -1.48075  -1.48005  -1.35722  -1.35718  -1.35703
 Alpha  occ. eigenvalues --   -1.35683  -1.35671  -1.35624  -0.82769  -0.82683
 Alpha  occ. eigenvalues --   -0.74512  -0.74457  -0.74365  -0.74335  -0.74318
 Alpha  occ. eigenvalues --   -0.74212  -0.60876  -0.60736  -0.60681  -0.60498
 Alpha  occ. eigenvalues --   -0.58425  -0.57843  -0.57823  -0.57786  -0.57774
 Alpha  occ. eigenvalues --   -0.57125  -0.53354  -0.53349  -0.53323  -0.53307
 Alpha  occ. eigenvalues --   -0.53273  -0.53255
 Alpha virt. eigenvalues --    0.24314   0.27095   0.27198   0.27354   0.27648
 Alpha virt. eigenvalues --    0.27851   0.28107   0.28873   0.38298   0.41264
 Alpha virt. eigenvalues --    0.47520   0.50387   0.50505   0.52359   0.52537

 Mulliken charges:
               1
     1  F   -0.149215
     2  C    0.605477
     3  F   -0.150676
     4  F   -0.149922
     5  F   -0.155621
     6  F   -0.148950
     7  C    0.605120
     8  F   -0.150647
     9  F   -0.150297
    10  F   -0.155268
 Sum of Mulliken charges =   0.00000

 Dipole moment (field-independent basis, Debye):
    X=             -0.0047    Y=             -0.0017    Z=              0.0081  Tot=              0.0095
  Exact polarizability:  25.758   0.084  23.455   0.024  -0.009  23.465
 Approx polarizability:  26.657   0.078  26.171   0.023  -0.003  26.162
   1 Symmetry operations used in ECPInt.
 ECPInt:  NShTT=    1830 NPrTT=    7390 LenC2=    1693 LenP2D=    4846.
 LDataN:  DoStor=T MaxTD1= 6 Len=  172
 Calling FoFJK, ICntrl=    100127 FMM=F ISym2X=0 I1Cent= 0 IOpClX= 0 NMat=1 NMatS=1 NMatT=0.
 Full mass-weighted force constant matrix:
 Low frequencies ---   -6.7755   -0.0017   -0.0014   -0.0009    2.8053    3.5899
 Low frequencies ---   18.2682   27.3007   28.1836
 Diagonal vibrational polarizability:

                      1                      2                      3
                      A                      A                      A
 Frequencies --     17.8232                27.0399                27.8429
 Red. masses --     18.8833                18.9471                18.7469
 Frc consts  --      0.0035                 0.0082                 0.0086
 IR Inten    --      0.0046                 0.0057                 0.0028

                      4                      5                      6
                      A                      A                      A
 Frequencies --     55.6560                57.2467                68.0717
 Red. masses --     18.6505                18.6241                18.0794
 Frc consts  --      0.0340                 0.0360                 0.0494
 IR Inten    --      0.0018                 0.0058                 0.0003

                      7                      8                      9
                      A                      A                      A
 Frequencies --    443.4567               445.3074               445.3629
 Red. masses --     18.9982                18.9982                18.9983
 Frc consts  --      2.2012                 2.2196                 2.2202
 IR Inten    --      0.0197                 0.0077                 0.0131

                     10                     11                     12
                      A                      A                      A
 Frequencies --    447.4984               640.8635               641.7271
 Red. masses --     18.9975                18.1495                18.1688
 Frc consts  --      2.2415                 4.3918                 4.4084
 IR Inten    --      0.0049                14.8437                 3.6873

                     13                     14                     15
                      A                      A                      A
 Frequencies --    641.9528               642.5851               642.7629
 Red. masses --     18.1717                18.1926                18.1838
 Frc consts  --      4.4122                 4.4260                 4.4263
 IR Inten    --      5.7399                 8.2625                 4.5996

                     16                     17                     18
                      A                      A                      A
 Frequencies --    643.8476               937.1738               937.5789
 Red. masses --     18.2161                18.9978                18.9978
 Frc consts  --      4.4491                 9.8309                 9.8394
 IR Inten    --      0.0256                 0.0655                 0.0280

                     19                     20                     21
                      A                      A                      A
 Frequencies --   1318.1566              1320.1587              1327.1318
 Red. masses --     13.0382                13.0322                13.0363
 Frc consts  --     13.3475                13.3820                13.5280
 IR Inten    --    861.0764                55.4643               104.7349

                     22                     23                     24
                      A                      A                      A
 Frequencies --   1348.5405              1349.3597              1352.4693
 Red. masses --     13.0132                13.0169                13.0205
 Frc consts  --     13.9432                13.9641                14.0325
 IR Inten    --    321.0023               723.2279               656.6692

 Normal termination of Gaussian 16 at Thu Sep  1 00:25:40 2022.
