 Gaussian 16, Revision B.01,
 Gaussian 16:  ES64L-G16RevB.01 20-Dec-2017

 ----------------------------------------------------------------------
 #T wB97XD/def2svpp opt=tight freq int(grid=ultrafine) scf=(verytight,q
 c)
 ----------------------------------------------------------------------
 --------------
 Comment gs min
 --------------
 Symbolic Z-matrix:
 Charge =  0 Multiplicity = 1

 SCF Done:  E(RwB97XD) =  -546.054523168     a.u. after    7 cycles
 SCF Done:  E(RwB97XD) =  -546.058440717     a.u. after    8 cycles
 SCF Done:  E(RwB97XD) =  -546.058855427     a.u. after    7 cycles
 SCF Done:  E(RwB97XD) =  -546.058910230     a.u. after    5 cycles
 SCF Done:  E(RwB97XD) =  -546.058921230     a.u. after    4 cycles
 SCF Done:  E(RwB97XD) =  -546.058929439     a.u. after    4 cycles
 SCF Done:  E(RwB97XD) =  -546.058935412     a.u. after    4 cycles
 SCF Done:  E(RwB97XD) =  -546.058938132     a.u. after    3 cycles
 SCF Done:  E(RwB97XD) =  -546.058938853     a.u. after    3 cycles
 SCF Done:  E(RwB97XD) =  -546.058938921     a.u. after    2 cycles
 SCF Done:  E(RwB97XD) =  -546.058938948     a.u. after    2 cycles
 SCF Done:  E(RwB97XD) =  -546.058938955     a.u. after    2 cycles
 SCF Done:  E(RwB97XD) =  -546.058938983     a.u. after    2 cycles
 SCF Done:  E(RwB97XD) =  -546.058939001     a.u. after    2 cycles
 SCF Done:  E(RwB97XD) =  -546.058939008     a.u. after    2 cycles
 SCF Done:  E(RwB97XD) =  -546.058939007     a.u. after    2 cycles
 SCF Done:  E(RwB97XD) =  -546.058939009     a.u. after    2 cycles
 SCF Done:  E(RwB97XD) =  -546.058939008     a.u. after    2 cycles
 Optimization completed on the basis of negligible forces.
    -- Stationary point found.
 Normal termination of Gaussian 16 at Thu Aug  4 16:21:52 2022.

 ---------------------------------------------------------------------
 #T Geom=AllCheck Guess=TCheck SCRF=Check GenChk RwB97XD/def2SVPP Freq
 ---------------------------------------------------------------------
 Structure from the checkpoint file:  "/scratch/user/peterchao1/peterchao1/6097790_1659647564000000798625426/Gau-210222.chk"
 --------------
 Comment gs min
 --------------
 Charge =  0 Multiplicity = 1

                         Standard orientation:
 ---------------------------------------------------------------------
 Center     Atomic      Atomic             Coordinates (Angstroms)
 Number     Number       Type             X           Y           Z
 ---------------------------------------------------------------------
      1          8           0       -1.761426   -0.135516    1.583702
      2          6           0       -0.950871    0.786901    0.893771
      3          6           0        0.021651    0.015120   -0.002406
      4          6           0        0.925843   -0.878869    0.870702
      5          8           0        1.823095   -1.662460    0.117674
      6          6           0       -0.756486   -0.860604   -0.982136
      7          9           0       -1.589745   -0.097814   -1.770448
      8          6           0        0.880821    0.997052   -0.797765
      9          9           0        1.523096    1.874726    0.048696
     10          1           0       -2.403427    0.347475    2.117984
     11          1           0       -0.369043    1.416512    1.594172
     12          1           0       -1.559773    1.459908    0.258529
     13          1           0        0.294646   -1.498922    1.532347
     14          1           0        1.536086   -0.223454    1.513166
     15          1           0        1.416148   -2.512219   -0.089012
     16          1           0       -1.377325   -1.583120   -0.425808
     17          1           0       -0.063657   -1.400926   -1.651150
     18          1           0        0.259097    1.585677   -1.493337
     19          1           0        1.647979    0.443063   -1.365140
 ---------------------------------------------------------------------

 SCF Done:  E(RwB97XD) =  -546.058939008     a.u. after    1 cycles

 The electronic state is 1-A.
 Alpha  occ. eigenvalues --  -24.79752 -24.79271 -19.26174 -19.25996 -10.36794
 Alpha  occ. eigenvalues --  -10.36149 -10.34517 -10.34192 -10.31457  -1.27872
 Alpha  occ. eigenvalues --   -1.27338  -1.12609  -1.12118  -0.91914  -0.78345
 Alpha  occ. eigenvalues --   -0.77808  -0.77005  -0.65434  -0.63481  -0.61127
 Alpha  occ. eigenvalues --   -0.60428  -0.59278  -0.58373  -0.56526  -0.54901
 Alpha  occ. eigenvalues --   -0.52816  -0.51431  -0.50733  -0.49545  -0.45631
 Alpha  occ. eigenvalues --   -0.44084  -0.43315  -0.41739  -0.40475  -0.39630
 Alpha  occ. eigenvalues --   -0.37020  -0.35490
 Alpha virt. eigenvalues --    0.12164   0.12621   0.16248   0.17071   0.19178
 Alpha virt. eigenvalues --    0.19476   0.21033   0.21542   0.23064   0.23823
 Alpha virt. eigenvalues --    0.25011   0.26734   0.28558   0.30080   0.30591

 Mulliken charges:
               1
     1  O   -0.489398
     2  C    0.047830
     3  C   -0.380109
     4  C    0.026952
     5  O   -0.485904
     6  C    0.117580
     7  F   -0.280513
     8  C    0.149441
     9  F   -0.281937
    10  H    0.325309
    11  H    0.111668
    12  H    0.106375
    13  H    0.125303
    14  H    0.119930
    15  H    0.322748
    16  H    0.123378
    17  H    0.102972
    18  H    0.117176
    19  H    0.121198
 Sum of Mulliken charges =  -0.00000

 Dipole moment (field-independent basis, Debye):
    X=             -1.6457    Y=             -1.0452    Z=              0.9099  Tot=              2.1515
  Exact polarizability:  57.594  -1.316  58.865  -2.533   1.143  57.323
 Approx polarizability:  60.995  -0.348  62.710  -1.304   1.270  60.218
   1 Symmetry operations used in ECPInt.
 ECPInt:  NShTT=    2775 NPrTT=   11173 LenC2=    2741 LenP2D=    8660.
 LDataN:  DoStor=T MaxTD1= 6 Len=  172
 Calling FoFJK, ICntrl=    100127 FMM=F ISym2X=0 I1Cent= 0 IOpClX= 0 NMat=1 NMatS=1 NMatT=0.
 Full mass-weighted force constant matrix:
 Low frequencies ---   -2.0875    0.0008    0.0009    0.0010    8.3368   10.3448
 Low frequencies ---   71.2935  102.3996  131.4145
 Diagonal vibrational polarizability:

                      1                      2                      3
                      A                      A                      A
 Frequencies --     71.2635               102.3940               131.4125
 Red. masses --      4.9727                 7.0038                 3.2351
 Frc consts  --      0.0149                 0.0433                 0.0329
 IR Inten    --      1.5226                 3.6497                 4.9916

                      4                      5                      6
                      A                      A                      A
 Frequencies --    149.4890               164.0181               242.9940
 Red. masses --      3.2705                 7.5648                 1.8393
 Frc consts  --      0.0431                 0.1199                 0.0640
 IR Inten    --     15.6368                 5.9113                27.0432

                      7                      8                      9
                      A                      A                      A
 Frequencies --    256.6932               272.1848               285.0803
 Red. masses --      2.8750                 1.3826                 2.4966
 Frc consts  --      0.1116                 0.0604                 0.1195
 IR Inten    --      8.2097               200.2085                11.7815

                     10                     11                     12
                      A                      A                      A
 Frequencies --    294.1607               348.3027               379.8178
 Red. masses --      1.3689                 2.2401                 4.2584
 Frc consts  --      0.0698                 0.1601                 0.3620
 IR Inten    --     20.7379                 3.8271                 4.6404

                     13                     14                     15
                      A                      A                      A
 Frequencies --    510.8478               529.9519               667.5135
 Red. masses --      3.9736                 3.9826                 3.9426
 Frc consts  --      0.6110                 0.6590                 1.0350
 IR Inten    --     19.8967                 6.8137                37.7738

                     16                     17                     18
                      A                      A                      A
 Frequencies --    780.0304               916.4902               931.3822
 Red. masses --      3.2443                 1.9809                 1.6330
 Frc consts  --      1.1630                 0.9803                 0.8346
 IR Inten    --      2.2800                17.9850                 0.6891

                     19                     20                     21
                      A                      A                      A
 Frequencies --    942.8590              1040.4033              1109.0206
 Red. masses --      1.5888                 1.5548                 5.8517
 Frc consts  --      0.8322                 0.9916                 4.2405
 IR Inten    --      3.3419                 9.7413                72.2828

                     22                     23                     24
                      A                      A                      A
 Frequencies --   1113.1770              1132.9212              1141.4143
 Red. masses --      5.7076                 5.3704                 4.0685
 Frc consts  --      4.1671                 4.0612                 3.1230
 IR Inten    --     84.5961                61.4979                72.7547

                     25                     26                     27
                      A                      A                      A
 Frequencies --   1166.6377              1205.2632              1243.1235
 Red. masses --      1.5059                 1.7291                 1.8743
 Frc consts  --      1.2076                 1.4799                 1.7066
 IR Inten    --     41.0331                39.8436                40.9449

                     28                     29                     30
                      A                      A                      A
 Frequencies --   1251.2455              1283.2073              1308.8957
 Red. masses --      1.3298                 1.1325                 1.3267
 Frc consts  --      1.2266                 1.0987                 1.3392
 IR Inten    --     15.0536                13.5705                 3.4430

                     31                     32                     33
                      A                      A                      A
 Frequencies --   1334.6510              1351.8602              1406.9325
 Red. masses --      1.5329                 1.3506                 1.2189
 Frc consts  --      1.6088                 1.4542                 1.4215
 IR Inten    --     29.2843                 5.3471                17.9950

                     34                     35                     36
                      A                      A                      A
 Frequencies --   1427.8322              1441.9394              1450.1952
 Red. masses --      1.3673                 1.4702                 1.4600
 Frc consts  --      1.6424                 1.8011                 1.8090
 IR Inten    --     17.7209                14.3456                 7.4170

                     37                     38                     39
                      A                      A                      A
 Frequencies --   1483.4992              1510.7182              1519.6892
 Red. masses --      1.4675                 1.0913                 1.0868
 Frc consts  --      1.9029                 1.4675                 1.4788
 IR Inten    --      1.8991                 5.8838                 5.4847

                     40                     41                     42
                      A                      A                      A
 Frequencies --   1520.5092              1533.8014              3015.3768
 Red. masses --      1.0866                 1.0928                 1.0586
 Frc consts  --      1.4801                 1.5147                 5.6712
 IR Inten    --      5.5686                 9.4005                38.2857

                     43                     44                     45
                      A                      A                      A
 Frequencies --   3056.3930              3060.5108              3066.8384
 Red. masses --      1.0628                 1.0592                 1.0824
 Frc consts  --      5.8496                 5.8452                 5.9982
 IR Inten    --     21.5883                27.5667                 8.1299

                     46                     47                     48
                      A                      A                      A
 Frequencies --   3069.3213              3126.4088              3129.0846
 Red. masses --      1.0830                 1.1087                 1.1110
 Frc consts  --      6.0111                 6.3847                 6.4090
 IR Inten    --     49.8527                12.4220                20.7612

                     49                     50                     51
                      A                      A                      A
 Frequencies --   3134.9934              3798.7290              3800.5317
 Red. masses --      1.1127                 1.0667                 1.0669
 Frc consts  --      6.4435                 9.0688                 9.0799
 IR Inten    --     18.5457                54.7369                39.1872

 Optimization completed.
    -- Stationary point found.
 Normal termination of Gaussian 16 at Thu Aug  4 16:23:55 2022.
