 Gaussian 16, Revision B.01,
 Gaussian 16:  ES64L-G16RevB.01 20-Dec-2017

 ----------------------------------------------------------------------
 #T wB97XD/def2svpp opt=tight freq int(grid=ultrafine) scf=(verytight,q
 c) Volume=tight
 ----------------------------------------------------------------------
 -----
 Dimer
 -----
 Symbolic Z-matrix:
 Charge =  0 Multiplicity = 1

 SCF Done:  E(RwB97XD) =  -505.664142782     a.u. after    7 cycles
 SCF Done:  E(RwB97XD) =  -505.668555984     a.u. after    9 cycles
 SCF Done:  E(RwB97XD) =  -505.668498384     a.u. after   11 cycles
 SCF Done:  E(RwB97XD) =  -505.669093975     a.u. after    9 cycles
 SCF Done:  E(RwB97XD) =  -505.669158702     a.u. after    7 cycles
 SCF Done:  E(RwB97XD) =  -505.669297499     a.u. after    7 cycles
 SCF Done:  E(RwB97XD) =  -505.669363127     a.u. after    6 cycles
 SCF Done:  E(RwB97XD) =  -505.669402110     a.u. after    5 cycles
 SCF Done:  E(RwB97XD) =  -505.669445304     a.u. after    5 cycles
 SCF Done:  E(RwB97XD) =  -505.669480194     a.u. after    5 cycles
 SCF Done:  E(RwB97XD) =  -505.669525598     a.u. after    2 cycles
 SCF Done:  E(RwB97XD) =  -505.669525600     a.u. after    2 cycles
 SCF Done:  E(RwB97XD) =  -505.669525602     a.u. after    2 cycles
 SCF Done:  E(RwB97XD) =  -505.669525605     a.u. after    2 cycles
 SCF Done:  E(RwB97XD) =  -505.669525606     a.u. after    2 cycles
 SCF Done:  E(RwB97XD) =  -505.669525609     a.u. after    2 cycles
 SCF Done:  E(RwB97XD) =  -505.669525614     a.u. after    2 cycles
 SCF Done:  E(RwB97XD) =  -505.669525611     a.u. after    2 cycles
 SCF Done:  E(RwB97XD) =  -505.669525613     a.u. after    2 cycles
 Optimization completed.
    -- Stationary point found.
 Normal termination of Gaussian 16 at Mon Apr  1 16:18:21 2024.

 ---------------------------------------------------------------------
 #T Geom=AllCheck Guess=TCheck SCRF=Check GenChk RwB97XD/def2SVPP Freq
 ---------------------------------------------------------------------
 Structure from the checkpoint file:  "dimer.chk"
 -----
 Dimer
 -----
 Charge =  0 Multiplicity = 1

                         Standard orientation:
 ---------------------------------------------------------------------
 Center     Atomic      Atomic             Coordinates (Angstroms)
 Number     Number       Type             X           Y           Z
 ---------------------------------------------------------------------
      1          6           0       -2.173870   -0.547724   -1.361582
      2          6           0       -2.929788   -0.325594   -0.044813
      3          6           0       -4.396497   -0.735962   -0.223751
      4          6           0       -2.291722   -1.170075    1.064568
      5          6           0       -2.888765    1.178681    0.340626
      6          7           0       -1.612363    1.761754    0.694180
      7          1           0       -2.156800   -1.618794   -1.634802
      8          1           0       -1.130768   -0.194215   -1.288292
      9          1           0       -2.656307    0.003579   -2.189476
     10          1           0       -4.892873   -0.110946   -0.988556
     11          1           0       -4.961122   -0.624597    0.719944
     12          1           0       -4.480576   -1.790169   -0.544685
     13          1           0       -1.221747   -0.925781    1.185866
     14          1           0       -2.363874   -2.248523    0.834623
     15          1           0       -2.793108   -0.998316    2.035337
     16          1           0       -3.581058    1.335514    1.190091
     17          1           0       -3.310985    1.756668   -0.504248
     18          1           0       -0.896748    1.623741   -0.026374
     19          1           0       -1.254278    1.366658    1.561991
     20          6           0        3.396539   -0.846556   -1.262463
     21          6           0        3.009565   -0.235444    0.090529
     22          6           0        3.216691   -1.275155    1.199235
     23          6           0        3.882447    0.994387    0.371861
     24          6           0        1.512281    0.159525    0.088734
     25          7           0        1.061557    1.139802   -0.881481
     26          1           0        4.450673   -1.176165   -1.259285
     27          1           0        3.284938   -0.117967   -2.085499
     28          1           0        2.769039   -1.725849   -1.496843
     29          1           0        2.943814   -0.863774    2.187923
     30          1           0        4.271775   -1.598321    1.248682
     31          1           0        2.596856   -2.173236    1.024677
     32          1           0        3.776393    1.758471   -0.419084
     33          1           0        4.950759    0.717802    0.417508
     34          1           0        3.613802    1.462052    1.336689
     35          1           0        1.247879    0.539493    1.093329
     36          1           0        0.909025   -0.755638   -0.059464
     37          1           0        1.200061    0.828707   -1.841333
     38          1           0        1.519583    2.042207   -0.765278
 ---------------------------------------------------------------------

 SCF Done:  E(RwB97XD) =  -505.669525613     a.u. after    1 cycles

 The electronic state is 1-A.
 Alpha  occ. eigenvalues --  -14.43102 -14.38541 -10.32000 -10.31141 -10.29260
 Alpha  occ. eigenvalues --  -10.29041 -10.28879 -10.28853 -10.28645 -10.27252
 Alpha  occ. eigenvalues --  -10.27078 -10.26861  -0.98899  -0.95197  -0.90715
 Alpha  occ. eigenvalues --   -0.88367  -0.78204  -0.78187  -0.76528  -0.76271
 Alpha  occ. eigenvalues --   -0.75403  -0.72602  -0.63283  -0.61094  -0.59902
 Alpha  occ. eigenvalues --   -0.56395  -0.55945  -0.54362  -0.53724  -0.53683
 Alpha  occ. eigenvalues --   -0.51994  -0.51503  -0.50539  -0.48209  -0.47884
 Alpha  occ. eigenvalues --   -0.46675  -0.45905  -0.45382  -0.45013  -0.44762
 Alpha  occ. eigenvalues --   -0.43754  -0.43203  -0.42214  -0.41404  -0.41099
 Alpha  occ. eigenvalues --   -0.40835  -0.39323  -0.38906  -0.32623  -0.28631
 Alpha virt. eigenvalues --    0.11119   0.13512   0.14372   0.15487   0.16918
 Alpha virt. eigenvalues --    0.17680   0.18108   0.18658   0.18887   0.19023
 Alpha virt. eigenvalues --    0.20040   0.20612   0.21156   0.22360   0.22605

 Mulliken charges:
               1
     1  C   -0.302419
     2  C   -0.243145
     3  C   -0.266854
     4  C   -0.295673
     5  C   -0.045690
     6  N   -0.544140
     7  H    0.105254
     8  H    0.124341
     9  H    0.106029
    10  H    0.110210
    11  H    0.109403
    12  H    0.109015
    13  H    0.107763
    14  H    0.109988
    15  H    0.108062
    16  H    0.087561
    17  H    0.089930
    18  H    0.260454
    19  H    0.215690
    20  C   -0.286657
    21  C   -0.235735
    22  C   -0.271738
    23  C   -0.285546
    24  C   -0.088758
    25  N   -0.509790
    26  H    0.119922
    27  H    0.105429
    28  H    0.116171
    29  H    0.115626
    30  H    0.117366
    31  H    0.116563
    32  H    0.104957
    33  H    0.119736
    34  H    0.116480
    35  H    0.103011
    36  H    0.122084
    37  H    0.237654
    38  H    0.237446
 Sum of Mulliken charges =  -0.00000

 Dipole moment (field-independent basis, Debye):
    X=              2.6661    Y=             -1.1464    Z=             -0.6499  Tot=              2.9740
  Exact polarizability: 139.230   0.783 116.737   0.988  -0.564 117.020
 Approx polarizability: 129.147   0.592 126.165   0.411  -0.302 128.095
   1 Symmetry operations used in ECPInt.
 ECPInt:  NShTT=    7750 NPrTT=   31110 LenC2=    7426 LenP2D=   21454.
 LDataN:  DoStor=T MaxTD1= 6 Len=  172
 Calling FoFJK, ICntrl=    100127 FMM=F ISym2X=0 I1Cent= 0 IOpClX= 0 NMat=1 NMatS=1 NMatT=0.
 Full mass-weighted force constant matrix:
 Low frequencies ---   -5.0899   -0.0007   -0.0006    0.0002    0.5262    5.8350
 Low frequencies ---   17.5521   25.1794   36.0487
 Diagonal vibrational polarizability:

                      1                      2                      3
                      A                      A                      A
 Frequencies --     17.4023                24.9815                36.0004
 Red. masses --      2.7804                 3.1452                 3.1049
 Frc consts  --      0.0005                 0.0012                 0.0024
 IR Inten    --      0.1518                 0.2081                 0.0312

                      4                      5                      6
                      A                      A                      A
 Frequencies --     59.3221                85.5571               106.4893
 Red. masses --      3.2898                 3.3287                 3.3802
 Frc consts  --      0.0068                 0.0144                 0.0226
 IR Inten    --      0.4688                 0.1477                 0.4286

                      7                      8                      9
                      A                      A                      A
 Frequencies --    117.6564               155.5687               229.1659
 Red. masses --      1.8961                 2.0144                 1.0534
 Frc consts  --      0.0155                 0.0287                 0.0326
 IR Inten    --      1.2788                 0.3387                 0.8075

                     10                     11                     12
                      A                      A                      A
 Frequencies --    238.8704               267.0519               277.3480
 Red. masses --      1.1062                 1.6775                 1.2275
 Frc consts  --      0.0372                 0.0705                 0.0556
 IR Inten    --      0.2334                 0.2262                 1.5648

                     13                     14                     15
                      A                      A                      A
 Frequencies --    280.4557               286.1971               292.9864
 Red. masses --      1.3974                 1.1573                 1.2860
 Frc consts  --      0.0648                 0.0558                 0.0650
 IR Inten    --      0.9025                 0.3576                 1.4015

                     16                     17                     18
                      A                      A                      A
 Frequencies --    295.4333               340.8888               343.8350
 Red. masses --      1.2844                 1.9751                 2.0517
 Frc consts  --      0.0660                 0.1352                 0.1429
 IR Inten    --      1.4375                 2.4390                 0.1481

                     19                     20                     21
                      A                      A                      A
 Frequencies --    359.9266               370.2192               374.0600
 Red. masses --      1.4661                 2.4024                 1.9840
 Frc consts  --      0.1119                 0.1940                 0.1636
 IR Inten    --     17.5412                 0.4547                 6.5946

                     22                     23                     24
                      A                      A                      A
 Frequencies --    403.5689               414.6452               420.4918
 Red. masses --      1.4919                 2.2589                 2.1978
 Frc consts  --      0.1432                 0.2288                 0.2290
 IR Inten    --     17.6607                 0.3705                 1.2060

                     25                     26                     27
                      A                      A                      A
 Frequencies --    438.1773               451.0163               525.2966
 Red. masses --      1.7908                 1.3832                 2.3195
 Frc consts  --      0.2026                 0.1658                 0.3771
 IR Inten    --      3.4650                18.4478                10.2631

                     28                     29                     30
                      A                      A                      A
 Frequencies --    537.4860               735.5658               748.0998
 Red. masses --      2.5336                 2.5903                 3.0188
 Frc consts  --      0.4312                 0.8257                 0.9954
 IR Inten    --      5.1255                44.9496                10.1427

                     31                     32                     33
                      A                      A                      A
 Frequencies --    851.1711               872.7656               879.5083
 Red. masses --      1.6310                 1.3237                 1.3714
 Frc consts  --      0.6962                 0.5941                 0.6250
 IR Inten    --    172.7658                 1.5571                28.3517

                     34                     35                     36
                      A                      A                      A
 Frequencies --    902.6645               928.0217               937.1549
 Red. masses --      1.7119                 2.0411                 1.7055
 Frc consts  --      0.8218                 1.0357                 0.8825
 IR Inten    --     54.6045                55.7301               136.6276

                     37                     38                     39
                      A                      A                      A
 Frequencies --    958.8265               959.1423               961.2056
 Red. masses --      1.4978                 1.5331                 1.4409
 Frc consts  --      0.8113                 0.8310                 0.7844
 IR Inten    --      1.6282                 1.4054                10.3571

                     40                     41                     42
                      A                      A                      A
 Frequencies --    961.3097               968.0481               970.7172
 Red. masses --      1.4894                 1.2124                 1.2444
 Frc consts  --      0.8109                 0.6694                 0.6908
 IR Inten    --      6.3085                 0.0130                 5.7814

                     43                     44                     45
                      A                      A                      A
 Frequencies --   1042.0683              1052.3994              1053.4690
 Red. masses --      1.3041                 1.4622                 1.4381
 Frc consts  --      0.8344                 0.9542                 0.9403
 IR Inten    --      0.5020                 7.5685                 6.9650

                     46                     47                     48
                      A                      A                      A
 Frequencies --   1054.2438              1154.3981              1158.1672
 Red. masses --      1.3431                 3.4590                 1.3010
 Frc consts  --      0.8795                 2.7159                 1.0281
 IR Inten    --      1.5530                18.1338                 0.5366

                     49                     50                     51
                      A                      A                      A
 Frequencies --   1166.4369              1175.0729              1260.6075
 Red. masses --      2.3802                 1.4873                 2.3593
 Frc consts  --      1.9080                 1.2100                 2.2090
 IR Inten    --     15.6967                 2.0562                 4.4591

                     52                     53                     54
                      A                      A                      A
 Frequencies --   1261.2374              1293.0929              1297.3567
 Red. masses --      2.3105                 2.7880                 2.8190
 Frc consts  --      2.1654                 2.7466                 2.7955
 IR Inten    --      4.6256                 0.7904                 1.6276

                     55                     56                     57
                      A                      A                      A
 Frequencies --   1307.1968              1312.7700              1391.8981
 Red. masses --      2.1796                 2.0380                 1.2726
 Frc consts  --      2.1943                 2.0693                 1.4526
 IR Inten    --      2.1623                 2.6195                 7.0763

                     58                     59                     60
                      A                      A                      A
 Frequencies --   1396.3487              1405.1698              1407.9348
 Red. masses --      1.2799                 1.1903                 1.3276
 Frc consts  --      1.4703                 1.3847                 1.5505
 IR Inten    --      3.6430                 4.1380                11.4114

                     61                     62                     63
                      A                      A                      A
 Frequencies --   1411.1242              1411.4905              1412.0042
 Red. masses --      1.3376                 1.3329                 1.2920
 Frc consts  --      1.5693                 1.5646                 1.5177
 IR Inten    --      8.6580                 8.6663                 3.6070

                     64                     65                     66
                      A                      A                      A
 Frequencies --   1414.9436              1437.1889              1440.1058
 Red. masses --      1.2633                 1.2652                 1.2615
 Frc consts  --      1.4902                 1.5398                 1.5415
 IR Inten    --      4.2322                 8.5868                 9.2213

                     67                     68                     69
                      A                      A                      A
 Frequencies --   1474.5339              1475.0382              1475.8847
 Red. masses --      1.0779                 1.0907                 1.0511
 Frc consts  --      1.3809                 1.3982                 1.3490
 IR Inten    --      0.6167                 0.9287                 0.3656

                     70                     71                     72
                      A                      A                      A
 Frequencies --   1476.0466              1481.6651              1482.9177
 Red. masses --      1.0477                 1.0462                 1.0454
 Frc consts  --      1.3449                 1.3532                 1.3544
 IR Inten    --      0.1092                 0.6730                 0.2207

                     73                     74                     75
                      A                      A                      A
 Frequencies --   1483.3360              1487.5366              1503.3299
 Red. masses --      1.0451                 1.0484                 1.0656
 Frc consts  --      1.3549                 1.3669                 1.4189
 IR Inten    --      1.6481                 0.7905                 8.1102

                     76                     77                     78
                      A                      A                      A
 Frequencies --   1504.5801              1505.5456              1506.0194
 Red. masses --      1.0670                 1.0724                 1.0700
 Frc consts  --      1.4231                 1.4322                 1.4299
 IR Inten    --     17.6335                 8.6771                 0.3256

                     79                     80                     81
                      A                      A                      A
 Frequencies --   1516.2065              1518.3308              1667.7913
 Red. masses --      1.0711                 1.0668                 1.1023
 Frc consts  --      1.4507                 1.4490                 1.8065
 IR Inten    --     22.5492                17.3157                27.2230

                     82                     83                     84
                      A                      A                      A
 Frequencies --   1706.1385              3012.8514              3016.1152
 Red. masses --      1.0937                 1.0551                 1.0417
 Frc consts  --      1.8757                 5.6428                 5.5831
 IR Inten    --     56.4459                28.9352                65.7341

                     85                     86                     87
                      A                      A                      A
 Frequencies --   3019.1286              3019.9753              3020.0052
 Red. masses --      1.0377                 1.0372                 1.0372
 Frc consts  --      5.5730                 5.5736                 5.5734
 IR Inten    --     30.8789                34.0993                27.9403

                     88                     89                     90
                      A                      A                      A
 Frequencies --   3024.2222              3025.2001              3031.9054
 Red. masses --      1.0417                 1.0409                 1.0585
 Frc consts  --      5.6131                 5.6126                 5.7328
 IR Inten    --     23.9488                12.2542                24.1321

                     91                     92                     93
                      A                      A                      A
 Frequencies --   3068.6297              3086.9689              3103.8538
 Red. masses --      1.1069                 1.1069                 1.1049
 Frc consts  --      6.1411                 6.2145                 6.2715
 IR Inten    --     30.3910                16.9048                 4.3276

                     94                     95                     96
                      A                      A                      A
 Frequencies --   3105.2255              3108.4270              3109.2031
 Red. masses --      1.1046                 1.1039                 1.1036
 Frc consts  --      6.2755                 6.2844                 6.2858
 IR Inten    --      1.6736                39.3587                53.6012

                     97                     98                     99
                      A                      A                      A
 Frequencies --   3110.5154              3112.7610              3113.1029
 Red. masses --      1.1052                 1.1042                 1.1039
 Frc consts  --      6.3004                 6.3038                 6.3031
 IR Inten    --      1.8919                25.5582                19.7966

                    100                    101                    102
                      A                      A                      A
 Frequencies --   3114.7023              3115.1259              3118.5032
 Red. masses --      1.1046                 1.1045                 1.1032
 Frc consts  --      6.3140                 6.3150                 6.3213
 IR Inten    --     18.1713                20.1187                66.9487

                    103                    104                    105
                      A                      A                      A
 Frequencies --   3120.6975              3132.5722              3449.1042
 Red. masses --      1.1029                 1.1020                 1.0577
 Frc consts  --      6.3286                 6.3716                 7.4134
 IR Inten    --     19.5025                12.0090               127.3022

                    106                    107                    108
                      A                      A                      A
 Frequencies --   3515.5874              3570.6254              3603.4071
 Red. masses --      1.0498                 1.0878                 1.0951
 Frc consts  --      7.6442                 8.1712                 8.3776
 IR Inten    --      1.5095                31.6751                 5.2401

                           ! Non-Optimized Parameters !
 Normal termination of Gaussian 16 at Mon Apr  1 16:26:54 2024.
