 Gaussian 16, Revision B.01,
 Gaussian 16:  ES64L-G16RevB.01 20-Dec-2017

 ----------------------------------------------------------------------
 #T wB97XD/def2svpp opt=tight freq int(grid=ultrafine) scf=(verytight,q
 c) Volume=tight
 ----------------------------------------------------------------------
 -------
 Monomer
 -------
 Symbolic Z-matrix:
 Charge =  0 Multiplicity = 1

 SCF Done:  E(RwB97XD) =  -495.738618222     a.u. after    8 cycles
 SCF Done:  E(RwB97XD) =  -495.739503335     a.u. after   11 cycles
 SCF Done:  E(RwB97XD) =  -495.738011803     a.u. after   13 cycles
 SCF Done:  E(RwB97XD) =  -495.740229691     a.u. after    6 cycles
 SCF Done:  E(RwB97XD) =  -495.740244347     a.u. after    4 cycles
 SCF Done:  E(RwB97XD) =  -495.740246816     a.u. after    3 cycles
 SCF Done:  E(RwB97XD) =  -495.740244861     a.u. after    3 cycles
 SCF Done:  E(RwB97XD) =  -495.740244557     a.u. after    3 cycles
 SCF Done:  E(RwB97XD) =  -495.740246887     a.u. after    3 cycles
 SCF Done:  E(RwB97XD) =  -495.740247078     a.u. after    2 cycles
 SCF Done:  E(RwB97XD) =  -495.740247082     a.u. after    2 cycles
 SCF Done:  E(RwB97XD) =  -495.740247082     a.u. after    2 cycles
 SCF Done:  E(RwB97XD) =  -495.740247081     a.u. after    2 cycles
 SCF Done:  E(RwB97XD) =  -495.740247082     a.u. after    2 cycles
 Optimization completed.
    -- Stationary point found.
 Normal termination of Gaussian 16 at Fri Mar 29 15:41:46 2024.

 ---------------------------------------------------------------------
 #T Geom=AllCheck Guess=TCheck SCRF=Check GenChk RwB97XD/def2SVPP Freq
 ---------------------------------------------------------------------
 Structure from the checkpoint file:  "monomer.chk"
 -------
 Monomer
 -------
 Charge =  0 Multiplicity = 1

                         Standard orientation:
 ---------------------------------------------------------------------
 Center     Atomic      Atomic             Coordinates (Angstroms)
 Number     Number       Type             X           Y           Z
 ---------------------------------------------------------------------
      1          6           0        0.052738    1.433508   -1.265755
      2          6           0       -0.000002    0.566514   -0.000002
      3          6           0       -0.052753    1.433519    1.265743
      4          6           0       -1.243221   -0.319676   -0.060088
      5          8           0       -1.143830   -1.242421   -1.028552
      6          8           0       -2.217589   -0.205191    0.630142
      7          6           0        1.243223   -0.319665    0.060090
      8          8           0        1.143852   -1.242387    1.028579
      9          8           0        2.217582   -0.205191   -0.630156
     10          1           0       -0.846357    2.069907   -1.323535
     11          1           0        0.112133    0.812507   -2.172591
     12          1           0        0.943613    2.080563   -1.236581
     13          1           0       -0.943635    2.080564    1.236561
     14          1           0        0.846335    2.069929    1.323517
     15          1           0       -0.112142    0.812526    2.172585
     16          1           0       -1.965105   -1.764857   -1.022741
     17          1           0        1.965129   -1.764819    1.022767
 ---------------------------------------------------------------------

 SCF Done:  E(RwB97XD) =  -495.740247082     a.u. after    1 cycles

 The electronic state is 1-A.
 Alpha  occ. eigenvalues --  -19.31402 -19.31401 -19.25667 -19.25666 -10.44186
 Alpha  occ. eigenvalues --  -10.44185 -10.34222 -10.29769 -10.29765  -1.22045
 Alpha  occ. eigenvalues --   -1.21184  -1.11995  -1.11933  -0.93197  -0.79317
 Alpha  occ. eigenvalues --   -0.78093  -0.74288  -0.66813  -0.63198  -0.58854
 Alpha  occ. eigenvalues --   -0.58641  -0.56272  -0.54691  -0.54250  -0.51257
 Alpha  occ. eigenvalues --   -0.51222  -0.48683  -0.48184  -0.45934  -0.45443
 Alpha  occ. eigenvalues --   -0.44169  -0.41984  -0.41698  -0.38307  -0.36176
 Alpha virt. eigenvalues --    0.07031   0.08543   0.12486   0.13625   0.15648
 Alpha virt. eigenvalues --    0.19187   0.20380   0.20649   0.23809   0.24218
 Alpha virt. eigenvalues --    0.27057   0.27741   0.30013   0.31175   0.35770

 Mulliken charges:
               1
     1  C   -0.257454
     2  C   -0.356945
     3  C   -0.257454
     4  C    0.255572
     5  O   -0.369791
     6  O   -0.211043
     7  C    0.255572
     8  O   -0.369792
     9  O   -0.211043
    10  H    0.128886
    11  H    0.145838
    12  H    0.143254
    13  H    0.143254
    14  H    0.128886
    15  H    0.145838
    16  H    0.343211
    17  H    0.343210
 Sum of Mulliken charges =  -0.00000

 Dipole moment (field-independent basis, Debye):
    X=              0.0000    Y=             -0.7797    Z=              0.0000  Tot=              0.7797
  Exact polarizability:  62.907  -0.000  57.854  -4.438   0.000  57.510
 Approx polarizability:  71.332  -0.000  60.267 -10.926   0.000  65.504
   1 Symmetry operations used in ECPInt.
 ECPInt:  NShTT=    2485 NPrTT=   10011 LenC2=    2464 LenP2D=    7797.
 LDataN:  DoStor=T MaxTD1= 6 Len=  172
 Calling FoFJK, ICntrl=    100127 FMM=F ISym2X=0 I1Cent= 0 IOpClX= 0 NMat=1 NMatS=1 NMatT=0.
 Full mass-weighted force constant matrix:
 Low frequencies ---   -8.4308   -5.8638   -4.1853   -0.0008   -0.0003    0.0012
 Low frequencies ---   48.6830   71.7479  157.4386
 Diagonal vibrational polarizability:

                      1                      2                      3
                      A                      A                      A
 Frequencies --     48.6700                71.7465               157.4386
 Red. masses --      9.1509                10.6787                 5.5322
 Frc consts  --      0.0128                 0.0324                 0.0808
 IR Inten    --      1.3121                 1.2097                 0.0005

                      4                      5                      6
                      A                      A                      A
 Frequencies --    227.6792               243.4378               245.5790
 Red. masses --      1.0319                 2.8739                 1.9600
 Frc consts  --      0.0315                 0.1003                 0.0696
 IR Inten    --      0.0294                 0.4806                 0.6344

                      7                      8                      9
                      A                      A                      A
 Frequencies --    261.6311               319.8823               350.1324
 Red. masses --      1.6483                 2.4356                 2.6541
 Frc consts  --      0.0665                 0.1468                 0.1917
 IR Inten    --      2.1214                 3.0802                 3.8241

                     10                     11                     12
                      A                      A                      A
 Frequencies --    449.7369               466.2756               528.9574
 Red. masses --     10.9987                 4.2137                 3.1216
 Frc consts  --      1.3107                 0.5398                 0.5146
 IR Inten    --      0.8176                 3.8113                 6.3467

                     13                     14                     15
                      A                      A                      A
 Frequencies --    615.0146               633.0183               660.3239
 Red. masses --      1.3357                 1.2569                 3.2076
 Frc consts  --      0.2977                 0.2967                 0.8240
 IR Inten    --    101.1748               116.4663                71.2273

                     16                     17                     18
                      A                      A                      A
 Frequencies --    749.0555               778.7374               820.2832
 Red. masses --      3.5031                 4.9492                 5.3852
 Frc consts  --      1.1580                 1.7683                 2.1349
 IR Inten    --     29.4205                24.7461                 6.2315

                     19                     20                     21
                      A                      A                      A
 Frequencies --    877.3417               980.3476               990.6436
 Red. masses --      1.9548                 1.3718                 2.1293
 Frc consts  --      0.8865                 0.7768                 1.2312
 IR Inten    --     22.0536                 2.8018                 0.9291

                     22                     23                     24
                      A                      A                      A
 Frequencies --   1040.5666              1178.9438              1207.0761
 Red. masses --      1.3217                 3.7231                 2.5972
 Frc consts  --      0.8432                 3.0489                 2.2296
 IR Inten    --      6.1844               162.0064               204.0850

                     25                     26                     27
                      A                      A                      A
 Frequencies --   1234.5674              1256.6989              1266.1548
 Red. masses --      2.3403                 2.6462                 1.7938
 Frc consts  --      2.1016                 2.4622                 1.6943
 IR Inten    --      8.3998                67.6127                57.5577

                     28                     29                     30
                      A                      A                      A
 Frequencies --   1385.5033              1403.9791              1413.1634
 Red. masses --      2.2042                 2.4817                 1.4249
 Frc consts  --      2.4930                 2.8822                 1.6766
 IR Inten    --     40.5632                55.6303                 4.3747

                     31                     32                     33
                      A                      A                      A
 Frequencies --   1436.1100              1476.1001              1479.9732
 Red. masses --      1.4769                 1.0473                 1.0476
 Frc consts  --      1.7946                 1.3445                 1.3519
 IR Inten    --     65.3585                 5.0236                 0.0043

                     34                     35                     36
                      A                      A                      A
 Frequencies --   1493.9932              1507.5324              1901.2901
 Red. masses --      1.0665                 1.0849                10.9334
 Frc consts  --      1.4026                 1.4528                23.2864
 IR Inten    --     21.0065                28.0581               611.3855

                     37                     38                     39
                      A                      A                      A
 Frequencies --   1918.8416              3051.9520              3054.2065
 Red. masses --     10.8078                 1.0370                 1.0376
 Frc consts  --     23.4458                 5.6910                 5.7028
 IR Inten    --     21.9833                10.6869                13.4182

                     40                     41                     42
                      A                      A                      A
 Frequencies --   3148.5851              3151.1249              3167.2516
 Red. masses --      1.1058                 1.1049                 1.1057
 Frc consts  --      6.4587                 6.4641                 6.5353
 IR Inten    --      0.8694                14.1429                 5.1236

                     43                     44                     45
                      A                      A                      A
 Frequencies --   3167.2823              3699.1034              3700.2474
 Red. masses --      1.1058                 1.0641                 1.0642
 Frc consts  --      6.5356                 8.5786                 8.5848
 IR Inten    --      4.6306               108.0834                86.2881

 Optimization completed.
    -- Stationary point found.
 Normal termination of Gaussian 16 at Fri Mar 29 15:43:30 2024.
