 Gaussian 16, Revision B.01,
 Gaussian 16:  ES64L-G16RevB.01 20-Dec-2017

 ----------------------------------------------------------------------
 #T wB97XD/def2svpp opt=tight freq int(grid=ultrafine) scf=(verytight,q
 c) Volume=tight
 ----------------------------------------------------------------------
 -------
 Monomer
 -------
 Symbolic Z-matrix:
 Charge =  0 Multiplicity = 1

 SCF Done:  E(RwB97XD) =  -249.416425017     a.u. after    7 cycles
 SCF Done:  E(RwB97XD) =  -249.417939561     a.u. after    7 cycles
 SCF Done:  E(RwB97XD) =  -249.418107605     a.u. after    5 cycles
 SCF Done:  E(RwB97XD) =  -249.418096446     a.u. after    7 cycles
 SCF Done:  E(RwB97XD) =  -249.418192592     a.u. after    5 cycles
 SCF Done:  E(RwB97XD) =  -249.418201223     a.u. after    3 cycles
 SCF Done:  E(RwB97XD) =  -249.418201567     a.u. after    2 cycles
 SCF Done:  E(RwB97XD) =  -249.418201642     a.u. after    2 cycles
 SCF Done:  E(RwB97XD) =  -249.418201653     a.u. after    2 cycles
 SCF Done:  E(RwB97XD) =  -249.418201654     a.u. after    2 cycles
 SCF Done:  E(RwB97XD) =  -249.418201653     a.u. after    2 cycles
 SCF Done:  E(RwB97XD) =  -249.418201654     a.u. after    2 cycles
 Optimization completed.
    -- Stationary point found.
 Normal termination of Gaussian 16 at Fri Mar 29 15:37:20 2024.

 ---------------------------------------------------------------------
 #T Geom=AllCheck Guess=TCheck SCRF=Check GenChk RwB97XD/def2SVPP Freq
 ---------------------------------------------------------------------
 Structure from the checkpoint file:  "monomer.chk"
 -------
 Monomer
 -------
 Charge =  0 Multiplicity = 1

                         Standard orientation:
 ---------------------------------------------------------------------
 Center     Atomic      Atomic             Coordinates (Angstroms)
 Number     Number       Type             X           Y           Z
 ---------------------------------------------------------------------
      1          6           0       -1.773953   -0.627528    0.027190
      2          6           0       -0.438818    0.016866   -0.337845
      3          7           0       -0.281497    1.397782    0.120545
      4          6           0        0.762023   -0.766481    0.203816
      5          8           0        1.952087   -0.111197   -0.105855
      6          1           0       -1.903263   -0.665579    1.124867
      7          1           0       -1.840271   -1.661000   -0.356557
      8          1           0       -2.617521   -0.053898   -0.394980
      9          1           0       -0.334279    0.042145   -1.437002
     10          1           0       -0.841365    2.048706   -0.427408
     11          1           0       -0.564139    1.492150    1.097907
     12          1           0        0.791836   -1.777217   -0.238802
     13          1           0        0.634532   -0.894298    1.304849
     14          1           0        1.732752    0.836950   -0.028819
 ---------------------------------------------------------------------

 SCF Done:  E(RwB97XD) =  -249.418201654     a.u. after    1 cycles

 The electronic state is 1-A.
 Alpha  occ. eigenvalues --  -19.22276 -14.43329 -10.32556 -10.32455 -10.29097
 Alpha  occ. eigenvalues --   -1.09632  -0.98642  -0.84230  -0.75878  -0.68297
 Alpha  occ. eigenvalues --   -0.61563  -0.55879  -0.54465  -0.52585  -0.49846
 Alpha  occ. eigenvalues --   -0.48231  -0.46906  -0.43087  -0.39245  -0.34392
 Alpha  occ. eigenvalues --   -0.32959
 Alpha virt. eigenvalues --    0.12276   0.16190   0.16734   0.18646   0.20913
 Alpha virt. eigenvalues --    0.22150   0.22532   0.23245   0.25265   0.30644
 Alpha virt. eigenvalues --    0.30886   0.32040   0.33771   0.52378   0.53878

 Mulliken charges:
               1
     1  C   -0.298661
     2  C   -0.137103
     3  N   -0.534342
     4  C    0.071010
     5  O   -0.497177
     6  H    0.109189
     7  H    0.122947
     8  H    0.117240
     9  H    0.104045
    10  H    0.232655
    11  H    0.225087
    12  H    0.099921
    13  H    0.066144
    14  H    0.319044
 Sum of Mulliken charges =  -0.00000

 Dipole moment (field-independent basis, Debye):
    X=             -3.1822    Y=              0.9385    Z=              0.3796  Tot=              3.3394
  Exact polarizability:  44.430   0.086  44.369  -0.167  -0.248  39.616
 Approx polarizability:  42.998  -0.029  45.506  -0.673  -0.009  43.088
   1 Symmetry operations used in ECPInt.
 ECPInt:  NShTT=    1176 NPrTT=    4748 LenC2=    1175 LenP2D=    4024.
 LDataN:  DoStor=T MaxTD1= 6 Len=  172
 Calling FoFJK, ICntrl=    100127 FMM=F ISym2X=0 I1Cent= 0 IOpClX= 0 NMat=1 NMatS=1 NMatT=0.
 Full mass-weighted force constant matrix:
 Low frequencies ---   -3.6858   -0.0011   -0.0004    0.0011    5.4761   13.0298
 Low frequencies ---  166.2614  248.1932  277.8544
 Diagonal vibrational polarizability:

                      1                      2                      3
                      A                      A                      A
 Frequencies --    166.2599               248.1922               277.8537
 Red. masses --      2.5723                 1.0519                 3.0724
 Frc consts  --      0.0419                 0.0382                 0.1398
 IR Inten    --      6.2424                 0.1113                 3.4977

                      4                      5                      6
                      A                      A                      A
 Frequencies --    304.0405               376.6023               472.2888
 Red. masses --      1.1036                 2.4338                 1.9204
 Frc consts  --      0.0601                 0.2034                 0.2524
 IR Inten    --     12.3239                 6.3584                 0.4371

                      7                      8                      9
                      A                      A                      A
 Frequencies --    536.4845               638.4260               857.2815
 Red. masses --      2.9294                 1.1327                 2.4388
 Frc consts  --      0.4968                 0.2720                 1.0560
 IR Inten    --      9.7089               137.2451                52.7895

                     10                     11                     12
                      A                      A                      A
 Frequencies --    873.8071               949.6842               956.5009
 Red. masses --      1.3542                 1.4150                 1.5130
 Frc consts  --      0.6092                 0.7519                 0.8155
 IR Inten    --    123.8224                 2.3149                 0.5807

                     13                     14                     15
                      A                      A                      A
 Frequencies --   1050.6679              1135.3068              1161.4940
 Red. masses --      1.2657                 2.6133                 2.7627
 Frc consts  --      0.8232                 1.9845                 2.1959
 IR Inten    --      1.3705                23.8082               134.0303

                     16                     17                     18
                      A                      A                      A
 Frequencies --   1209.8637              1221.7161              1306.5229
 Red. masses --      1.9510                 1.4514                 1.4725
 Frc consts  --      1.6826                 1.2764                 1.4810
 IR Inten    --     16.4049                 3.6390                 8.8981

                     19                     20                     21
                      A                      A                      A
 Frequencies --   1339.2730              1391.7337              1416.6928
 Red. masses --      1.3707                 1.2663                 1.3262
 Frc consts  --      1.4485                 1.4451                 1.5682
 IR Inten    --      4.9694                18.7459                14.9928

                     22                     23                     24
                      A                      A                      A
 Frequencies --   1434.5298              1478.1764              1489.1577
 Red. masses --      1.2930                 1.2350                 1.0533
 Frc consts  --      1.5677                 1.5900                 1.3762
 IR Inten    --     11.3340                82.0238                 7.0241

                     25                     26                     27
                      A                      A                      A
 Frequencies --   1495.9827              1521.5580              1663.3180
 Red. masses --      1.1513                 1.0950                 1.1022
 Frc consts  --      1.5181                 1.4937                 1.7967
 IR Inten    --     29.2432                 2.3269                33.2167

                     28                     29                     30
                      A                      A                      A
 Frequencies --   2939.6117              3022.9412              3068.2824
 Red. masses --      1.0734                 1.0382                 1.0869
 Frc consts  --      5.4652                 5.5897                 6.0287
 IR Inten    --     83.3176                18.8771                17.8194

                     31                     32                     33
                      A                      A                      A
 Frequencies --   3093.3958              3115.8834              3125.2473
 Red. masses --      1.0942                 1.1035                 1.1048
 Frc consts  --      6.1693                 6.3123                 6.3579
 IR Inten    --     32.9822                35.3911                21.7388

                     34                     35                     36
                      A                      A                      A
 Frequencies --   3491.5201              3586.6940              3615.2307
 Red. masses --      1.0525                 1.0922                 1.0641
 Frc consts  --      7.5599                 8.2785                 8.1940
 IR Inten    --      1.0276                 5.2051               101.1041

                           ! Non-Optimized Parameters !
 Normal termination of Gaussian 16 at Fri Mar 29 15:37:58 2024.
