 Gaussian 16, Revision B.01,
 Gaussian 16:  ES64L-G16RevB.01 20-Dec-2017

 ----------------------------------------------------------------------
 #T wB97XD/def2svpp opt=tight freq int(grid=ultrafine) scf=(verytight,q
 c)
 ----------------------------------------------------------------------
 --------------
 Comment gs min
 --------------
 Symbolic Z-matrix:
 Charge =  0 Multiplicity = 1

 SCF Done:  E(RwB97XD) =  -1385.08474006     a.u. after    9 cycles
 SCF Done:  E(RwB97XD) =  -1385.08961543     a.u. after   13 cycles
 SCF Done:  E(RwB97XD) =  -1385.07726330     a.u. after   26 cycles
 SCF Done:  E(RwB97XD) =  -1385.09155258     a.u. after   13 cycles
 SCF Done:  E(RwB97XD) =  -1385.09275414     a.u. after   12 cycles
 SCF Done:  E(RwB97XD) =  -1385.09391891     a.u. after   13 cycles
 SCF Done:  E(RwB97XD) =  -1385.08789453     a.u. after   19 cycles
 SCF Done:  E(RwB97XD) =  -1385.09461474     a.u. after   11 cycles
 SCF Done:  E(RwB97XD) =  -1385.09507073     a.u. after   13 cycles
 SCF Done:  E(RwB97XD) =  -1385.09511891     a.u. after    9 cycles
 SCF Done:  E(RwB97XD) =  -1385.09566477     a.u. after    2 cycles
 SCF Done:  E(RwB97XD) =  -1385.09566477     a.u. after    2 cycles
 SCF Done:  E(RwB97XD) =  -1385.09566478     a.u. after    2 cycles
 SCF Done:  E(RwB97XD) =  -1385.09566478     a.u. after    2 cycles
 SCF Done:  E(RwB97XD) =  -1385.09566479     a.u. after    2 cycles
 SCF Done:  E(RwB97XD) =  -1385.09566479     a.u. after    2 cycles
 SCF Done:  E(RwB97XD) =  -1385.09566479     a.u. after    2 cycles
 SCF Done:  E(RwB97XD) =  -1385.09566479     a.u. after    2 cycles
 SCF Done:  E(RwB97XD) =  -1385.09566479     a.u. after    2 cycles
 Optimization completed.
    -- Stationary point found.
 Normal termination of Gaussian 16 at Tue Jun 27 14:09:51 2023.

 ---------------------------------------------------------------------
 #T Geom=AllCheck Guess=TCheck SCRF=Check GenChk RwB97XD/def2SVPP Freq
 ---------------------------------------------------------------------
 Structure from the checkpoint file:  "43.chk"
 --------------
 Comment gs min
 --------------
 Charge =  0 Multiplicity = 1

                         Standard orientation:
 ---------------------------------------------------------------------
 Center     Atomic      Atomic             Coordinates (Angstroms)
 Number     Number       Type             X           Y           Z
 ---------------------------------------------------------------------
      1          6           0       -1.838804    0.007886    1.689158
      2          6           0       -2.393894    0.003055    0.295466
      3          7           0       -1.975880   -1.235636   -0.491697
      4          8           0       -2.153059   -2.275681    0.077836
      5          8           0       -1.534041   -1.063316   -1.598004
      6          7           0       -3.924131    0.024579    0.273716
      7          8           0       -4.437612    0.716529    1.111826
      8          8           0       -4.462193   -0.623354   -0.582171
      9          7           0       -1.937599    1.216148   -0.508475
     10          8           0       -2.768256    1.797579   -1.148402
     11          8           0       -0.763102    1.474883   -0.426842
     12          1           0       -2.176944    0.916335    2.208127
     13          1           0       -0.740853   -0.013694    1.642214
     14          1           0       -2.204920   -0.882764    2.220506
     15          6           0        1.838899   -0.007815   -1.689194
     16          6           0        2.393919   -0.003041   -0.295474
     17          7           0        1.975831    1.235604    0.491724
     18          8           0        1.533894    1.063219    1.597982
     19          8           0        2.153049    2.275683   -0.077734
     20          7           0        1.937605   -1.216184    0.508384
     21          8           0        0.763118   -1.474940    0.426673
     22          8           0        2.768241   -1.797631    1.148324
     23          7           0        3.924153   -0.024531   -0.273640
     24          8           0        4.437697   -0.716395   -1.111783
     25          8           0        4.462151    0.623342    0.582333
     26          1           0        2.204995    0.882889   -2.220465
     27          1           0        0.740945    0.013722   -1.642290
     28          1           0        2.177105   -0.916216   -2.208203
 ---------------------------------------------------------------------

 SCF Done:  E(RwB97XD) =  -1385.09566479     a.u. after    1 cycles

 The electronic state is 1-A.
 Alpha  occ. eigenvalues --  -19.35710 -19.35710 -19.35461 -19.35457 -19.35010
 Alpha  occ. eigenvalues --  -19.35009 -19.34986 -19.34985 -19.34750 -19.34750
 Alpha  occ. eigenvalues --  -19.34686 -19.34686 -14.75343 -14.75343 -14.74820
 Alpha  occ. eigenvalues --  -14.74819 -14.74555 -14.74555 -10.49996 -10.49995
 Alpha  occ. eigenvalues --  -10.35758 -10.35757  -1.42006  -1.41935  -1.39959
 Alpha  occ. eigenvalues --   -1.39886  -1.39459  -1.39441  -1.23405  -1.23354
 Alpha  occ. eigenvalues --   -1.22888  -1.22885  -1.22634  -1.22633  -1.04855
 Alpha  occ. eigenvalues --   -1.04813  -0.87083  -0.86898  -0.85858  -0.85830
 Alpha  occ. eigenvalues --   -0.85323  -0.85238  -0.73299  -0.72655  -0.72317
 Alpha  occ. eigenvalues --   -0.72204  -0.71608  -0.71464  -0.69303  -0.69238
 Alpha  occ. eigenvalues --   -0.68237  -0.67875  -0.67680  -0.67652  -0.66250
 Alpha  occ. eigenvalues --   -0.66069  -0.65626  -0.65600  -0.65310  -0.65281
 Alpha  occ. eigenvalues --   -0.59223  -0.59157  -0.55932  -0.55864  -0.55529
 Alpha  occ. eigenvalues --   -0.55471  -0.48168  -0.47767  -0.46814  -0.46730
 Alpha  occ. eigenvalues --   -0.46034  -0.45799  -0.45683  -0.45302  -0.45044
 Alpha  occ. eigenvalues --   -0.44967  -0.44736  -0.44677  -0.44124  -0.44109
 Alpha  occ. eigenvalues --   -0.43641  -0.43599  -0.43526  -0.43515
 Alpha virt. eigenvalues --   -0.05854  -0.05769  -0.05262  -0.04913  -0.04315
 Alpha virt. eigenvalues --   -0.04247   0.11803   0.12201   0.12563   0.12715
 Alpha virt. eigenvalues --    0.14278   0.15091   0.18761   0.18836   0.19732

 Mulliken charges:
               1
     1  C   -0.258881
     2  C    0.121107
     3  N    0.255016
     4  O   -0.179384
     5  O   -0.205019
     6  N    0.240105
     7  O   -0.193950
     8  O   -0.188596
     9  N    0.245834
    10  O   -0.178232
    11  O   -0.219932
    12  H    0.184881
    13  H    0.192358
    14  H    0.184690
    15  C   -0.258871
    16  C    0.121104
    17  N    0.255019
    18  O   -0.205022
    19  O   -0.179382
    20  N    0.245833
    21  O   -0.219928
    22  O   -0.178233
    23  N    0.240105
    24  O   -0.193950
    25  O   -0.188596
    26  H    0.184690
    27  H    0.192352
    28  H    0.184882
 Sum of Mulliken charges =  -0.00000

 Dipole moment (field-independent basis, Debye):
    X=              0.0002    Y=              0.0001    Z=             -0.0001  Tot=              0.0003
  Exact polarizability: 137.319  -1.077 109.058  -2.442   0.337 115.398
 Approx polarizability: 160.718   1.347 148.250   0.821   0.456 170.229
   1 Symmetry operations used in ECPInt.
 ECPInt:  NShTT=   10440 NPrTT=   41920 LenC2=    9290 LenP2D=   25006.
 LDataN:  DoStor=T MaxTD1= 6 Len=  172
 Calling FoFJK, ICntrl=    100127 FMM=F ISym2X=0 I1Cent= 0 IOpClX= 0 NMat=1 NMatS=1 NMatT=0.
 Full mass-weighted force constant matrix:
 Low frequencies ---   -1.2318   -0.0008   -0.0007   -0.0005    5.5864   18.4673
 Low frequencies ---   24.8324   37.1650   48.6039
 Diagonal vibrational polarizability:

                      1                      2                      3
                      A                      A                      A
 Frequencies --     24.8324                37.1650                47.6011
 Red. masses --     12.3313                10.3427                12.3443
 Frc consts  --      0.0045                 0.0084                 0.0165
 IR Inten    --      0.7001                 2.9182                 0.0000

                      4                      5                      6
                      A                      A                      A
 Frequencies --     50.1502                57.4640                63.6973
 Red. masses --     10.8013                 9.5928                11.1332
 Frc consts  --      0.0160                 0.0187                 0.0266
 IR Inten    --      2.3241                 0.0000                 2.3048

                      7                      8                      9
                      A                      A                      A
 Frequencies --     65.2264                74.3527                84.5549
 Red. masses --     13.2435                11.6661                11.8288
 Frc consts  --      0.0332                 0.0380                 0.0498
 IR Inten    --      0.0000                 0.0000                 1.3057

                     10                     11                     12
                      A                      A                      A
 Frequencies --     92.9414               117.4966               123.8798
 Red. masses --     13.4506                15.1609                15.6533
 Frc consts  --      0.0685                 0.1233                 0.1415
 IR Inten    --      0.0000                 0.0000                 0.3203

                     13                     14                     15
                      A                      A                      A
 Frequencies --    195.0967               198.6421               200.3927
 Red. masses --     11.2683                12.0465                 7.5667
 Frc consts  --      0.2527                 0.2801                 0.1790
 IR Inten    --      0.0000                 0.0000                 8.5824

                     16                     17                     18
                      A                      A                      A
 Frequencies --    204.0952               239.4023               242.5389
 Red. masses --     11.5148                 7.2913                 9.0139
 Frc consts  --      0.2826                 0.2462                 0.3124
 IR Inten    --     11.2358                 0.0001                17.2241

                     19                     20                     21
                      A                      A                      A
 Frequencies --    294.4730               296.3983               328.5791
 Red. masses --      1.8202                 1.7415                 3.2533
 Frc consts  --      0.0930                 0.0901                 0.2069
 IR Inten    --      1.0884                 0.0001                 0.0002

                     22                     23                     24
                      A                      A                      A
 Frequencies --    329.6826               365.3378               366.3954
 Red. masses --      3.1599                 2.5829                 2.0343
 Frc consts  --      0.2024                 0.2031                 0.1609
 IR Inten    --      3.4126                 0.6366                 0.0060

                     25                     26                     27
                      A                      A                      A
 Frequencies --    406.2525               417.1540               428.2973
 Red. masses --      4.7147                 3.5189                13.7407
 Frc consts  --      0.4585                 0.3608                 1.4851
 IR Inten    --      0.0001                 2.5590                 4.3005

                     28                     29                     30
                      A                      A                      A
 Frequencies --    428.9723               438.8731               440.1149
 Red. masses --     13.4653                14.0399                12.8809
 Frc consts  --      1.4599                 1.5933                 1.4700
 IR Inten    --      0.0000                 0.0000                 3.4817

                     31                     32                     33
                      A                      A                      A
 Frequencies --    537.3417               539.3643               685.3314
 Red. masses --      6.9139                 6.8159                 7.8940
 Frc consts  --      1.1762                 1.1683                 2.1845
 IR Inten    --      0.0000                24.2164                 0.0088

                     34                     35                     36
                      A                      A                      A
 Frequencies --    685.4442               700.3081               702.0716
 Red. masses --      7.6704                 7.3975                 7.3918
 Frc consts  --      2.1233                 2.1375                 2.1467
 IR Inten    --     32.5282                48.3723                 0.0001

                     37                     38                     39
                      A                      A                      A
 Frequencies --    759.3023               760.6752               829.9883
 Red. masses --      7.9342                 7.9856                 5.9077
 Frc consts  --      2.6952                 2.7224                 2.3978
 IR Inten    --      0.9393                 0.0000                 0.0004

                     40                     41                     42
                      A                      A                      A
 Frequencies --    830.1680               834.9607               836.9517
 Red. masses --      5.9410                 6.4784                 6.2936
 Frc consts  --      2.4124                 2.6610                 2.5975
 IR Inten    --     62.4543                 0.0000                44.5539

                     43                     44                     45
                      A                      A                      A
 Frequencies --    914.2620               914.4411               930.5313
 Red. masses --     13.3971                13.9050                 3.2890
 Frc consts  --      6.5979                 6.8507                 1.6779
 IR Inten    --     31.8670                 0.0001                 0.0000

                     46                     47                     48
                      A                      A                      A
 Frequencies --    934.0291               941.1586               942.9150
 Red. masses --      3.3445                 3.1883                 3.2582
 Frc consts  --      1.7191                 1.6639                 1.7068
 IR Inten    --     92.9654                 0.0005                68.7234

                     49                     50                     51
                      A                      A                      A
 Frequencies --   1179.9141              1180.4247              1190.9563
 Red. masses --      2.4360                 2.4398                 2.3593
 Frc consts  --      1.9981                 2.0030                 1.9716
 IR Inten    --     21.7238                 0.0009                 0.0047

                     52                     53                     54
                      A                      A                      A
 Frequencies --   1191.4525              1232.4236              1233.4120
 Red. masses --      2.3516                 6.0699                 6.0780
 Frc consts  --      1.9668                 5.4319                 5.4479
 IR Inten    --     12.4705                 0.0000                17.5024

                     55                     56                     57
                      A                      A                      A
 Frequencies --   1417.9207              1419.0361              1457.2052
 Red. masses --      1.3249                 1.3227                 4.2197
 Frc consts  --      1.5694                 1.5693                 5.2792
 IR Inten    --     27.0074                 0.0000                 0.0001

                     58                     59                     60
                      A                      A                      A
 Frequencies --   1458.2996              1465.3644              1466.8022
 Red. masses --      4.0398                12.0697                 6.5598
 Frc consts  --      5.0618                15.2699                 8.3154
 IR Inten    --    215.1489                 0.0003               152.9179

                     61                     62                     63
                      A                      A                      A
 Frequencies --   1476.3219              1477.9417              1503.0413
 Red. masses --      1.3317                 1.2949                 1.0549
 Frc consts  --      1.7101                 1.6665                 1.4041
 IR Inten    --    155.2027                 0.0001                 0.0215

                     64                     65                     66
                      A                      A                      A
 Frequencies --   1506.4086              1526.3466              1527.1188
 Red. masses --      1.1181                10.4865                11.0878
 Frc consts  --      1.4950                14.3942                15.2350
 IR Inten    --     83.4807                 0.0000                59.9272

                     67                     68                     69
                      A                      A                      A
 Frequencies --   1805.7920              1806.9795              1814.5250
 Red. masses --     14.2603                14.3103                14.4312
 Frc consts  --     27.3976                27.5299                27.9949
 IR Inten    --    748.5920                 0.0004               636.0982

                     70                     71                     72
                      A                      A                      A
 Frequencies --   1815.0370              1821.7389              1821.8606
 Red. masses --     14.4761                14.2818                14.3919
 Frc consts  --     28.0978                27.9257                28.1448
 IR Inten    --      0.0005                 0.0565               455.6857

                     73                     74                     75
                      A                      A                      A
 Frequencies --   3089.7859              3090.0356              3199.7549
 Red. masses --      1.0356                 1.0356                 1.1074
 Frc consts  --      5.8248                 5.8258                 6.6800
 IR Inten    --      0.0010                 7.3064                 0.1441

                     76                     77                     78
                      A                      A                      A
 Frequencies --   3199.7672              3215.8085              3216.1885
 Red. masses --      1.1073                 1.1060                 1.1058
 Frc consts  --      6.6799                 6.7388                 6.7390
 IR Inten    --      6.8581                 0.0225                42.2833

                           ! Non-Optimized Parameters !
 Normal termination of Gaussian 16 at Tue Jun 27 14:22:15 2023.
