 Gaussian 16, Revision B.01,
 Gaussian 16:  ES64L-G16RevB.01 20-Dec-2017

 ----------------------------------------------------------------------
 #T wB97XD/def2svpp opt=tight freq int(grid=ultrafine) scf=(verytight,q
 c) Volume=tight
 ----------------------------------------------------------------------
 -------
 Monomer
 -------
 Symbolic Z-matrix:
 Charge =  0 Multiplicity = 1

 SCF Done:  E(RwB97XD) =  -311.940643920     a.u. after    7 cycles
 SCF Done:  E(RwB97XD) =  -311.943014633     a.u. after    5 cycles
 SCF Done:  E(RwB97XD) =  -311.943102368     a.u. after    5 cycles
 SCF Done:  E(RwB97XD) =  -311.943133503     a.u. after    4 cycles
 SCF Done:  E(RwB97XD) =  -311.943146842     a.u. after    4 cycles
 SCF Done:  E(RwB97XD) =  -311.943152614     a.u. after    3 cycles
 SCF Done:  E(RwB97XD) =  -311.943156444     a.u. after    3 cycles
 SCF Done:  E(RwB97XD) =  -311.943156769     a.u. after    2 cycles
 SCF Done:  E(RwB97XD) =  -311.943156790     a.u. after    2 cycles
 SCF Done:  E(RwB97XD) =  -311.943156790     a.u. after    2 cycles
 SCF Done:  E(RwB97XD) =  -311.943156790     a.u. after    2 cycles
 SCF Done:  E(RwB97XD) =  -311.943156790     a.u. after    2 cycles
 Optimization completed.
    -- Stationary point found.

 1\1\GINC-C200\FOpt\RwB97XD\def2SVPP\C6H14O1\PETERCHAO1\29-Mar-2024\0\\
 #T wB97XD/def2svpp opt=tight freq int(grid=ultrafine) scf=(verytight,q
 c) Volume=tight\\Monomer\\0,1\C,-2.2801038462,0.9327521153,-0.02457418
 31\C,-0.8385013299,0.8219258565,-0.5166810412\C,-0.0237239442,-0.38204
 82786,0.0025516286\C,-0.036333509,-0.4371575915,1.5374554721\C,-0.5626
 050433,-1.702323756,-0.5620672572\C,1.4314944911,-0.2261064144,-0.4871
 280268\O,2.0820947959,0.9298520801,-0.0249619443\H,-2.8746832502,0.035
 1950076,-0.2690515749\H,-2.7796083303,1.7956871366,-0.4972627527\H,-2.

 Normal termination of Gaussian 16 at Fri Mar 29 15:39:52 2024.

 ---------------------------------------------------------------------
 #T Geom=AllCheck Guess=TCheck SCRF=Check GenChk RwB97XD/def2SVPP Freq
 ---------------------------------------------------------------------
 Structure from the checkpoint file:  "monomer.chk"
 -------
 Monomer
 -------
 Charge =  0 Multiplicity = 1

                         Standard orientation:
 ---------------------------------------------------------------------
 Center     Atomic      Atomic             Coordinates (Angstroms)
 Number     Number       Type             X           Y           Z
 ---------------------------------------------------------------------
      1          6           0        2.274972   -0.838995   -0.026311
      2          6           0        0.838312   -0.782275   -0.541542
      3          6           0       -0.043656    0.362631    0.000989
      4          6           0       -0.060116    0.367249    1.536838
      5          6           0        0.439044    1.725638   -0.510409
      6          6           0       -1.480794    0.152303   -0.520702
      7          8           0       -2.081409   -1.048714   -0.108466
      8          1           0        2.828655    0.094105   -0.230422
      9          1           0        2.824475   -1.660371   -0.517213
     10          1           0        2.315244   -1.024126    1.060911
     11          1           0        0.329707   -1.734852   -0.311144
     12          1           0        0.854085   -0.706092   -1.645471
     13          1           0       -0.804420    1.089650    1.921477
     14          1           0        0.919992    0.658255    1.951335
     15          1           0       -0.300783   -0.631665    1.944551
     16          1           0        0.434922    1.760746   -1.614987
     17          1           0        1.465474    1.945680   -0.170465
     18          1           0       -0.210630    2.541112   -0.143550
     19          1           0       -1.465963    0.117341   -1.623586
     20          1           0       -2.101797    1.026987   -0.229606
     21          1           0       -2.244262   -1.006364    0.842725
 ---------------------------------------------------------------------

 SCF Done:  E(RwB97XD) =  -311.943156790     a.u. after    1 cycles

 The electronic state is 1-A.
 Alpha  occ. eigenvalues --  -19.24738 -10.33093 -10.30404 -10.28646 -10.28277
 Alpha  occ. eigenvalues --  -10.28176 -10.27901  -1.11097  -0.91569  -0.82551
 Alpha  occ. eigenvalues --   -0.78055  -0.76209  -0.71074  -0.62946  -0.59164
 Alpha  occ. eigenvalues --   -0.55060  -0.54159  -0.52986  -0.51656  -0.47390
 Alpha  occ. eigenvalues --   -0.46813  -0.46677  -0.46017  -0.43149  -0.42979
 Alpha  occ. eigenvalues --   -0.40894  -0.39917  -0.38637  -0.34619
 Alpha virt. eigenvalues --    0.12311   0.14606   0.16522   0.17525   0.18951
 Alpha virt. eigenvalues --    0.19524   0.20088   0.21484   0.22543   0.23790
 Alpha virt. eigenvalues --    0.24184   0.25424   0.26168   0.27802   0.28606

 Mulliken charges:
               1
     1  C   -0.315786
     2  C   -0.176262
     3  C   -0.263497
     4  C   -0.321864
     5  C   -0.284396
     6  C    0.075119
     7  O   -0.484273
     8  H    0.114112
     9  H    0.121537
    10  H    0.116511
    11  H    0.113999
    12  H    0.094312
    13  H    0.112944
    14  H    0.129819
    15  H    0.113792
    16  H    0.115595
    17  H    0.123008
    18  H    0.112749
    19  H    0.097597
    20  H    0.086929
    21  H    0.318056
 Sum of Mulliken charges =  -0.00000

 Dipole moment (field-independent basis, Debye):
    X=              0.4084    Y=              1.0602    Z=              1.1002  Tot=              1.5815
  Exact polarizability:  69.688  -2.070  66.525  -0.906  -0.651  66.013
 Approx polarizability:  68.997   0.229  70.325  -0.929  -0.388  71.006
   1 Symmetry operations used in ECPInt.
 ECPInt:  NShTT=    2485 NPrTT=   10003 LenC2=    2478 LenP2D=    8163.
 LDataN:  DoStor=T MaxTD1= 6 Len=  172
 Calling FoFJK, ICntrl=    100127 FMM=F ISym2X=0 I1Cent= 0 IOpClX= 0 NMat=1 NMatS=1 NMatT=0.
 Full mass-weighted force constant matrix:
 Low frequencies ---   -5.4703   -0.0008   -0.0005    0.0002    7.5492    8.8680
 Low frequencies ---   85.2104  131.0854  211.7495
 Diagonal vibrational polarizability:

                      1                      2                      3
                      A                      A                      A
 Frequencies --     85.1894               131.0820               211.7454
 Red. masses --      1.7523                 2.6086                 1.2988
 Frc consts  --      0.0075                 0.0264                 0.0343
 IR Inten    --      0.1761                 2.8502                 0.2803

                      4                      5                      6
                      A                      A                      A
 Frequencies --    230.7768               257.8946               291.9036
 Red. masses --      1.7492                 1.2091                 1.7337
 Frc consts  --      0.0549                 0.0474                 0.0870
 IR Inten    --     11.1684                 6.6533                 1.6804

                      7                      8                      9
                      A                      A                      A
 Frequencies --    312.2332               347.0256               366.4306
 Red. masses --      1.4093                 1.4789                 2.1803
 Frc consts  --      0.0809                 0.1049                 0.1725
 IR Inten    --     15.7041                83.3791                 1.1970

                     10                     11                     12
                      A                      A                      A
 Frequencies --    373.1591               431.4966               460.2906
 Red. masses --      1.7038                 1.8589                 2.5593
 Frc consts  --      0.1398                 0.2039                 0.3195
 IR Inten    --     23.6047                15.8019                 1.2958

                     13                     14                     15
                      A                      A                      A
 Frequencies --    578.4395               731.9650               798.7463
 Red. masses --      3.0557                 3.0577                 1.1790
 Frc consts  --      0.6024                 0.9652                 0.4432
 IR Inten    --      6.5790                 3.2170                 2.5451

                     16                     17                     18
                      A                      A                      A
 Frequencies --    894.4932               930.7588               961.1144
 Red. masses --      1.8079                 1.7725                 1.4022
 Frc consts  --      0.8523                 0.9047                 0.7631
 IR Inten    --      5.4750                 7.7675                 0.8355

                     19                     20                     21
                      A                      A                      A
 Frequencies --    988.1621              1012.9342              1052.9394
 Red. masses --      1.3855                 1.2632                 1.7590
 Frc consts  --      0.7971                 0.7636                 1.1490
 IR Inten    --     11.3587                 0.9544                 5.0094

                     22                     23                     24
                      A                      A                      A
 Frequencies --   1075.7436              1101.1104              1145.6866
 Red. masses --      1.5022                 2.0100                 4.2977
 Frc consts  --      1.0242                 1.4359                 3.3237
 IR Inten    --      0.7475                10.5550               106.2682

                     25                     26                     27
                      A                      A                      A
 Frequencies --   1194.6398              1246.4429              1262.9696
 Red. masses --      1.3056                 1.9889                 2.4249
 Frc consts  --      1.0978                 1.8206                 2.2790
 IR Inten    --     15.9723                 1.9123                 2.4075

                     28                     29                     30
                      A                      A                      A
 Frequencies --   1307.5544              1345.3845              1386.5925
 Red. masses --      1.7532                 1.4143                 1.4512
 Frc consts  --      1.7661                 1.5083                 1.6439
 IR Inten    --      2.4347                 9.7945                 0.8739

                     31                     32                     33
                      A                      A                      A
 Frequencies --   1401.3299              1414.2224              1423.9293
 Red. masses --      1.2769                 1.3219                 1.3010
 Frc consts  --      1.4773                 1.5577                 1.5542
 IR Inten    --      5.9189                19.6678                 6.6576

                     34                     35                     36
                      A                      A                      A
 Frequencies --   1427.4024              1444.1195              1481.8186
 Red. masses --      1.3128                 1.2856                 1.0592
 Frc consts  --      1.5759                 1.5797                 1.3703
 IR Inten    --      2.7905                31.3283                 2.2532

                     37                     38                     39
                      A                      A                      A
 Frequencies --   1485.2661              1487.4921              1501.1370
 Red. masses --      1.0705                 1.0485                 1.0853
 Frc consts  --      1.3914                 1.3668                 1.4409
 IR Inten    --      1.7943                 7.4262                 1.5638

                     40                     41                     42
                      A                      A                      A
 Frequencies --   1501.6346              1505.2310              1510.1227
 Red. masses --      1.0632                 1.0519                 1.0650
 Frc consts  --      1.4126                 1.4042                 1.4309
 IR Inten    --      5.0558                 7.6154                16.0260

                     43                     44                     45
                      A                      A                      A
 Frequencies --   1518.7479              2983.0372              3019.4198
 Red. masses --      1.0680                 1.0707                 1.0389
 Frc consts  --      1.4514                 5.6138                 5.5806
 IR Inten    --      8.2058                64.7274                30.2807

                     46                     47                     48
                      A                      A                      A
 Frequencies --   3024.4384              3032.9064              3036.1947
 Red. masses --      1.0396                 1.0612                 1.0424
 Frc consts  --      5.6030                 5.7515                 5.6617
 IR Inten    --     23.6154                27.0629                14.2051

                     49                     50                     51
                      A                      A                      A
 Frequencies --   3093.3892              3096.8904              3103.8331
 Red. masses --      1.1006                 1.0980                 1.1045
 Frc consts  --      6.2049                 6.2042                 6.2692
 IR Inten    --      2.2339                23.7163                20.2338

                     52                     53                     54
                      A                      A                      A
 Frequencies --   3110.1989              3122.9014              3123.9268
 Red. masses --      1.1038                 1.1040                 1.1033
 Frc consts  --      6.2912                 6.3434                 6.3440
 IR Inten    --     34.1679                23.8052                26.8976

                     55                     56                     57
                      A                      A                      A
 Frequencies --   3128.5853              3131.0289              3782.8997
 Red. masses --      1.1024                 1.1040                 1.0659
 Frc consts  --      6.3575                 6.3764                 8.9867
 IR Inten    --     33.4651                19.1658                27.5432

 Optimization completed.
    -- Stationary point found.

 1\1\GINC-C200\Freq\RwB97XD\def2SVPP\C6H14O1\PETERCHAO1\29-Mar-2024\0\\
 #T Geom=AllCheck Guess=TCheck SCRF=Check GenChk RwB97XD/def2SVPP Freq\
 \Monomer\\0,1\C,-2.2801038462,0.9327521153,-0.0245741831\C,-0.83850132
 99,0.8219258565,-0.5166810412\C,-0.0237239442,-0.3820482786,0.00255162
 86\C,-0.036333509,-0.4371575915,1.5374554721\C,-0.5626050433,-1.702323
 756,-0.5620672572\C,1.4314944911,-0.2261064144,-0.4871280268\O,2.08209
 47959,0.9298520801,-0.0249619443\H,-2.8746832502,0.0351950076,-0.26905
 15749\H,-2.7796083303,1.7956871366,-0.4972627527\H,-2.3317001832,1.084

 Normal termination of Gaussian 16 at Fri Mar 29 15:41:38 2024.
