 Gaussian 16, Revision B.01,
 Gaussian 16:  ES64L-G16RevB.01 20-Dec-2017

 ----------------------------------------------------------------------
 #T wB97XD/def2svpp opt=tight freq int(grid=ultrafine) scf=(verytight,q
 c)
 ----------------------------------------------------------------------
 -------
 comment
 -------
 Symbolic Z-matrix:
 Charge =  1 Multiplicity = 2

 SCF Done:  E(UwB97XD) =  -268.524024294     a.u. after    8 cycles
 SCF Done:  E(UwB97XD) =  -268.541142447     a.u. after    9 cycles
 SCF Done:  E(UwB97XD) =  -268.552656907     a.u. after   13 cycles
 SCF Done:  E(UwB97XD) =  -268.558809063     a.u. after   13 cycles
 SCF Done:  E(UwB97XD) =  -268.563716023     a.u. after   17 cycles
 SCF Done:  E(UwB97XD) =  -268.565189137     a.u. after    7 cycles
 SCF Done:  E(UwB97XD) =  -268.565663249     a.u. after    7 cycles
 SCF Done:  E(UwB97XD) =  -268.565844414     a.u. after    5 cycles
 SCF Done:  E(UwB97XD) =  -268.565965398     a.u. after    5 cycles
 SCF Done:  E(UwB97XD) =  -268.566169384     a.u. after    6 cycles
 SCF Done:  E(UwB97XD) =  -268.566244117     a.u. after    5 cycles
 SCF Done:  E(UwB97XD) =  -268.566263604     a.u. after    4 cycles
 SCF Done:  E(UwB97XD) =  -268.566266707     a.u. after    3 cycles
 SCF Done:  E(UwB97XD) =  -268.566268349     a.u. after    3 cycles
 SCF Done:  E(UwB97XD) =  -268.566268426     a.u. after    2 cycles
 SCF Done:  E(UwB97XD) =  -268.566268430     a.u. after    2 cycles
 SCF Done:  E(UwB97XD) =  -268.566268430     a.u. after    2 cycles
 SCF Done:  E(UwB97XD) =  -268.566268430     a.u. after    2 cycles
 SCF Done:  E(UwB97XD) =  -268.566268430     a.u. after    2 cycles
 Optimization completed.
    -- Stationary point found.
 Normal termination of Gaussian 16 at Mon Jul 10 19:32:38 2023.

 ---------------------------------------------------------------------
 #T Geom=AllCheck Guess=TCheck SCRF=Check GenChk UwB97XD/def2SVPP Freq
 ---------------------------------------------------------------------
 Structure from the checkpoint file:  "39.chk"
 -------
 comment
 -------
 Charge =  1 Multiplicity = 2

                         Standard orientation:
 ---------------------------------------------------------------------
 Center     Atomic      Atomic             Coordinates (Angstroms)
 Number     Number       Type             X           Y           Z
 ---------------------------------------------------------------------
      1          6           0        0.489698    1.362427   -0.749731
      2          6           0        0.632695    0.097315    0.064221
      3          6           0        1.566937   -0.963606   -0.470651
      4          7           0        0.683482    0.282490    1.406142
      5          6           0       -1.129084   -0.794919   -0.294189
      6          7           0       -2.182448   -0.032204    0.049422
      7          1           0        0.256442    1.140443   -1.802398
      8          1           0        1.449446    1.909633   -0.726600
      9          1           0       -0.290595    2.025647   -0.340405
     10          1           0        1.345168   -1.206408   -1.520679
     11          1           0        1.525126   -1.891504    0.124239
     12          1           0        2.600855   -0.575881   -0.426197
     13          1           0        1.055091   -0.431765    2.026163
     14          1           0        0.321610    1.127383    1.838615
     15          1           0       -0.961145   -1.676421    0.334783
     16          1           0       -0.987404   -0.938271   -1.372188
     17          1           0       -2.601994    0.621678   -0.605352
     18          1           0       -2.581313   -0.063835    0.983168
 ---------------------------------------------------------------------

 SCF Done:  E(UwB97XD) =  -268.566268430     a.u. after    1 cycles

 The electronic state is 2-A.
 Alpha  occ. eigenvalues --  -14.65934 -14.64932 -10.55216 -10.53397 -10.45748
 Alpha  occ. eigenvalues --  -10.45546  -1.22136  -1.20288  -1.03638  -0.96393
 Alpha  occ. eigenvalues --   -0.94543  -0.85922  -0.82543  -0.80347  -0.77368
 Alpha  occ. eigenvalues --   -0.73504  -0.72354  -0.67303  -0.65259  -0.64430
 Alpha  occ. eigenvalues --   -0.63866  -0.62431  -0.61419  -0.57996  -0.45465
 Alpha virt. eigenvalues --   -0.05982  -0.03960  -0.01443  -0.00390   0.00799
 Alpha virt. eigenvalues --    0.02985   0.03381   0.05746   0.06430   0.07697
 Alpha virt. eigenvalues --    0.09309   0.10440   0.11902   0.13015   0.16422

  Beta  occ. eigenvalues --  -14.65435 -14.64468 -10.54978 -10.53075 -10.45730
  Beta  occ. eigenvalues --  -10.45522  -1.20919  -1.19115  -1.02713  -0.96168
  Beta  occ. eigenvalues --   -0.93151  -0.85268  -0.82043  -0.79933  -0.76407
  Beta  occ. eigenvalues --   -0.72877  -0.70441  -0.66713  -0.64946  -0.64128
  Beta  occ. eigenvalues --   -0.63618  -0.61215  -0.60104  -0.53927
  Beta virt. eigenvalues --   -0.21775  -0.04327  -0.01559  -0.01189  -0.00213
  Beta virt. eigenvalues --    0.01135   0.03179   0.03502   0.05954   0.06615
  Beta virt. eigenvalues --    0.07941   0.09466   0.10602   0.12108   0.13428

 Mulliken charges and spin densities:
               1          2
     1  C   -0.286657  -0.000520
     2  C   -0.209242   0.219064
     3  C   -0.275385  -0.002959
     4  N   -0.344414   0.260509
     5  C   -0.091570   0.230223
     6  N   -0.374645   0.275409
     7  H    0.158937  -0.000804
     8  H    0.193949   0.016034
     9  H    0.148829   0.001973
    10  H    0.164601  -0.001051
    11  H    0.159870   0.001946
    12  H    0.193048   0.021018
    13  H    0.294662  -0.010964
    14  H    0.291629  -0.011243
    15  H    0.179206   0.009017
    16  H    0.189603   0.015595
    17  H    0.306294  -0.011763
    18  H    0.301285  -0.011486
 Sum of Mulliken charges =   1.00000   1.00000

 Dipole moment (field-independent basis, Debye):
    X=             -1.9199    Y=              0.2488    Z=              1.6059  Tot=              2.5153
  Exact polarizability:  76.056   0.275  53.395   3.773   1.260  56.680
 Approx polarizability:  70.801  -0.962  54.851   3.417   1.758  61.002
                          Isotropic Fermi Contact Couplings
        Atom                 a.u.       MegaHertz       Gauss      10(-4) cm-1
     1  C(13)              0.00390       4.38483       1.56462       1.46262
     2  C(13)              0.01483      16.67655       5.95061       5.56270
     3  C(13)              0.00867       9.74909       3.47872       3.25195
     4  N(14)              0.07550      24.39492       8.70471       8.13727
     5  C(13)              0.05644      63.44426      22.63849      21.16273
     6  N(14)              0.07855      25.37862       9.05572       8.46540

                      1                      2                      3
                      A                      A                      A
 Frequencies --     92.0565               170.5435               217.7643
 Red. masses --      2.0727                 5.2987                 1.5408
 Frc consts  --      0.0103                 0.0908                 0.0430
 IR Inten    --      0.5831                 0.1867                 0.1070

                      4                      5                      6
                      A                      A                      A
 Frequencies --    241.4062               258.7922               272.6531
 Red. masses --      1.6301                 1.0680                 2.1814
 Frc consts  --      0.0560                 0.0421                 0.0955
 IR Inten    --      0.0530                 0.3986                 1.4870

                      7                      8                      9
                      A                      A                      A
 Frequencies --    335.9625               402.5199               419.5513
 Red. masses --      2.2420                 2.0965                 1.2427
 Frc consts  --      0.1491                 0.2001                 0.1289
 IR Inten    --     19.8589                 5.1970               132.4551

                     10                     11                     12
                      A                      A                      A
 Frequencies --    451.2984               474.8033               508.1729
 Red. masses --      1.8247                 1.6804                 1.4153
 Frc consts  --      0.2190                 0.2232                 0.2153
 IR Inten    --      6.3058                 6.9013                25.8314

                     13                     14                     15
                      A                      A                      A
 Frequencies --    520.0493               539.5833               820.7074
 Red. masses --      1.5984                 1.1798                 2.2607
 Frc consts  --      0.2547                 0.2024                 0.8971
 IR Inten    --    133.9963                76.7486                 4.2790

                     16                     17                     18
                      A                      A                      A
 Frequencies --    851.3898               955.5115              1003.1629
 Red. masses --      1.3111                 1.3919                 1.2074
 Frc consts  --      0.5599                 0.7487                 0.7159
 IR Inten    --     11.5417                 0.0919                 0.0670

                     19                     20                     21
                      A                      A                      A
 Frequencies --   1029.2730              1049.6954              1062.4550
 Red. masses --      1.0944                 1.4641                 1.4683
 Frc consts  --      0.6831                 0.9505                 0.9765
 IR Inten    --      3.1593                 3.3557                 5.3544

                     22                     23                     24
                      A                      A                      A
 Frequencies --   1091.9576              1152.0451              1338.2731
 Red. masses --      1.4099                 1.3222                 1.6966
 Frc consts  --      0.9905                 1.0339                 1.7903
 IR Inten    --     39.3346                34.7821                47.4800

                     25                     26                     27
                      A                      A                      A
 Frequencies --   1340.7067              1363.3813              1417.7492
 Red. masses --      1.4773                 1.9572                 1.3764
 Frc consts  --      1.5646                 2.1435                 1.6300
 IR Inten    --     28.8259                17.9490                18.1211

                     28                     29                     30
                      A                      A                      A
 Frequencies --   1421.4026              1444.8469              1474.8179
 Red. masses --      1.3564                 1.6823                 1.0591
 Frc consts  --      1.6146                 2.0692                 1.3572
 IR Inten    --     17.7617                43.9560                 3.7425

                     31                     32                     33
                      A                      A                      A
 Frequencies --   1478.3812              1490.4579              1504.6747
 Red. masses --      1.1122                 1.0732                 1.3045
 Frc consts  --      1.4322                 1.4047                 1.7401
 IR Inten    --      0.6225                11.1333                17.0401

                     34                     35                     36
                      A                      A                      A
 Frequencies --   1517.3745              1669.9327              1681.4454
 Red. masses --      1.4087                 1.3138                 1.2927
 Frc consts  --      1.9110                 2.1587                 2.1533
 IR Inten    --     11.4394               111.0616                93.2744

                     37                     38                     39
                      A                      A                      A
 Frequencies --   3043.0911              3045.1824              3133.8079
 Red. masses --      1.0390                 1.0394                 1.0573
 Frc consts  --      5.6690                 5.6788                 6.1176
 IR Inten    --      1.1569                 0.1758                 5.7723

                     40                     41                     42
                      A                      A                      A
 Frequencies --   3134.9149              3136.6435              3165.0506
 Red. masses --      1.1038                 1.1025                 1.1064
 Frc consts  --      6.3913                 6.3908                 6.5304
 IR Inten    --      2.7221                 1.5174                 1.3662

                     43                     44                     45
                      A                      A                      A
 Frequencies --   3168.9329              3248.9225              3555.5467
 Red. masses --      1.1056                 1.1234                 1.0467
 Frc consts  --      6.5417                 6.9864                 7.7963
 IR Inten    --      1.7064                 0.0868               178.7494

                     46                     47                     48
                      A                      A                      A
 Frequencies --   3569.0668              3665.4767              3673.0083
 Red. masses --      1.0484                 1.1058                 1.1058
 Frc consts  --      7.8681                 8.7537                 8.7897
 IR Inten    --    143.0550                77.7553                95.8873

 Optimization completed.
    -- Stationary point found.
 Normal termination of Gaussian 16 at Mon Jul 10 19:34:23 2023.
