 Gaussian 16, Revision B.01,
 Gaussian 16:  ES64L-G16RevB.01 20-Dec-2017

 --------------------------------------------------------------
 #T wB97XD//def2svpp Volume=tight Geom=AllCheckpoint Guess=Read
 --------------------------------------------------------------
 Structure from the checkpoint file:  "monomer.chk"
 -------
 Monomer
 -------
 Charge =  0 Multiplicity = 1

                         Standard orientation:
 ---------------------------------------------------------------------
 Center     Atomic      Atomic             Coordinates (Angstroms)
 Number     Number       Type             X           Y           Z
 ---------------------------------------------------------------------
      1          6           0        0.510341    1.403174   -0.582451
      2          6           0        0.395964   -0.002434    0.006699
      3          6           0        1.636832   -0.840975   -0.291858
      4          8           0        0.186007    0.078986    1.416426
      5          6           0       -0.871450   -0.704904   -0.497636
      6          8           0       -2.026419   -0.027326   -0.097669
      7          1           0        1.358064    1.949721   -0.128290
      8          1           0       -0.418648    1.965315   -0.396207
      9          1           0        0.682252    1.364820   -1.671668
     10          1           0        1.772114   -0.984340   -1.378167
     11          1           0        1.555551   -1.830392    0.188688
     12          1           0        2.543341   -0.343847    0.098341
     13          1           0        0.842476    0.675460    1.799524
     14          1           0       -0.862792   -1.749396   -0.120145
     15          1           0       -0.869098   -0.742456   -1.599629
     16          1           0       -1.910078    0.152669    0.848973
 ---------------------------------------------------------------------

 SCF Done:  E(RwB97XD) =  -308.537483136     A.U. after    1 cycles

 The electronic state is 1-A.
 Alpha  occ. eigenvalues --  -19.25881 -19.23689 -10.35314 -10.32883 -10.28832
 Alpha  occ. eigenvalues --  -10.28621  -1.13043  -1.09544  -0.88052  -0.78690
 Alpha  occ. eigenvalues --   -0.76531  -0.68176  -0.58908  -0.58274  -0.55718
 Alpha  occ. eigenvalues --   -0.51888  -0.50728  -0.49294  -0.48057  -0.46113
 Alpha  occ. eigenvalues --   -0.44424  -0.42667  -0.39848  -0.36561  -0.34385
 Alpha virt. eigenvalues --    0.11613   0.16478   0.17198   0.18128   0.19556
 Alpha virt. eigenvalues --    0.20308   0.21970   0.23074   0.24125   0.26523
 Alpha virt. eigenvalues --    0.28948   0.29468   0.30919   0.32167   0.34669

 Mulliken charges:
               1
     1  C   -0.283438
     2  C   -0.076241
     3  C   -0.271840
     4  O   -0.503277
     5  C    0.085903
     6  O   -0.492272
     7  H    0.104358
     8  H    0.133916
     9  H    0.117729
    10  H    0.117342
    11  H    0.127791
    12  H    0.107493
    13  H    0.319632
    14  H    0.091569
    15  H    0.098411
    16  H    0.322925
 Sum of Mulliken charges =  -0.00000

 Dipole moment (field-independent basis, Debye):
    X=              2.5492    Y=              0.5944    Z=              0.3719  Tot=              2.6439
 Evaluate density.
 Using the total density.
 Monte-Carlo method of calculating molar volume:
 based on  0.001 e/bohr**3 density envelope.
 Number of points per bohr**3 =  100 CutOff= 1.00D-04
 Using the SCF density.
 There are      1692 points.  Will hold      1692 in memory.
 LenV=  1048371547 MDV=  1048576000.
 Box volume = 4849.958 fraction occupied=0.199
 Integrated density= 4.2066798833379728D+01 error=-7.9332011666202717D+00

 Normal termination of Gaussian 16 at Tue Apr  2 13:48:04 2024.
