 Gaussian 16, Revision B.01,
 Gaussian 16:  ES64L-G16RevB.01 20-Dec-2017

 ----------------------------------------------------------------------
 #T wB97XD/def2svpp opt=(calcall,tight) int(grid=ultrafine) scf=(veryti
 ght,qc)
 ----------------------------------------------------------------------
 --------------
 Comment gs min
 --------------
 Symbolic Z-matrix:
 Charge =  0 Multiplicity = 1

 SCF Done:  E(RwB97XD) =  -692.541067876     a.u. after    9 cycles
 SCF Done:  E(RwB97XD) =  -692.541065644     a.u. after    2 cycles
 SCF Done:  E(RwB97XD) =  -692.541068472     a.u. after    2 cycles
 SCF Done:  E(RwB97XD) =  -692.541067816     a.u. after    2 cycles
 SCF Done:  E(RwB97XD) =  -692.541065290     a.u. after    2 cycles
 SCF Done:  E(RwB97XD) =  -692.541066682     a.u. after    2 cycles
 SCF Done:  E(RwB97XD) =  -692.541069467     a.u. after    2 cycles
 SCF Done:  E(RwB97XD) =  -692.541065343     a.u. after    2 cycles
 SCF Done:  E(RwB97XD) =  -692.541068215     a.u. after    2 cycles
 SCF Done:  E(RwB97XD) =  -692.541066914     a.u. after    2 cycles
 SCF Done:  E(RwB97XD) =  -692.541066717     a.u. after    2 cycles
 SCF Done:  E(RwB97XD) =  -692.541066548     a.u. after    2 cycles
 SCF Done:  E(RwB97XD) =  -692.541068541     a.u. after    2 cycles
 SCF Done:  E(RwB97XD) =  -692.541068368     a.u. after    2 cycles
 SCF Done:  E(RwB97XD) =  -692.541065770     a.u. after    2 cycles
 SCF Done:  E(RwB97XD) =  -692.541068641     a.u. after    2 cycles
 SCF Done:  E(RwB97XD) =  -692.541067630     a.u. after    2 cycles
 SCF Done:  E(RwB97XD) =  -692.541069139     a.u. after    2 cycles
 SCF Done:  E(RwB97XD) =  -692.541068191     a.u. after    2 cycles
 SCF Done:  E(RwB97XD) =  -692.541069322     a.u. after    2 cycles
 Optimization completed.
    -- Stationary point found.

                         Standard orientation:
 ---------------------------------------------------------------------
 Center     Atomic      Atomic             Coordinates (Angstroms)
 Number     Number       Type             X           Y           Z
 ---------------------------------------------------------------------
      1          6           0       -0.000339    0.000257    1.910528
      2          6           0       -0.000057    0.000031    0.409318
      3          7           0        1.059486    0.937316   -0.164831
      4          8           0        2.129810    0.886731    0.381607
      5          8           0        0.738433    1.616937   -1.100955
      6          7           0        0.282048   -1.386200   -0.164688
      7          8           0        1.031975   -1.448146   -1.100122
      8          8           0       -0.297745   -2.287688    0.381137
      9          7           0       -1.341425    0.448790   -0.165160
     10          8           0       -1.833290    1.400608    0.381530
     11          8           0       -1.768809   -0.168701   -1.101818
     12          1           0        0.980666   -0.341285    2.271200
     13          1           0       -0.786807   -0.678516    2.270848
     14          1           0       -0.195235    1.020800    2.270600
 ---------------------------------------------------------------------

 The electronic state is 1-A.
 Alpha  occ. eigenvalues --  -19.34556 -19.34549 -19.34548 -19.34403 -19.34402
 Alpha  occ. eigenvalues --  -19.34402 -14.74333 -14.74333 -14.74331 -10.49535
 Alpha  occ. eigenvalues --  -10.36071  -1.41325  -1.39127  -1.39127  -1.22432
 Alpha  occ. eigenvalues --   -1.22431  -1.22343  -1.04400  -0.86939  -0.85079
 Alpha  occ. eigenvalues --   -0.85078  -0.71644  -0.71643  -0.71248  -0.68671
 Alpha  occ. eigenvalues --   -0.67303  -0.67300  -0.65246  -0.65025  -0.65024
 Alpha  occ. eigenvalues --   -0.59070  -0.55892  -0.55891  -0.47274  -0.46023
 Alpha  occ. eigenvalues --   -0.45031  -0.45029  -0.44308  -0.44306  -0.43726
 Alpha  occ. eigenvalues --   -0.43044  -0.43043
 Alpha virt. eigenvalues --   -0.04740  -0.04738  -0.03773   0.12581   0.12585
 Alpha virt. eigenvalues --    0.13469   0.19055   0.19980   0.19980   0.22709
 Alpha virt. eigenvalues --    0.32692   0.32734   0.32734   0.43334   0.43341

 Mulliken charges:
               1
     1  C   -0.252891
     2  C    0.130779
     3  N    0.241537
     4  O   -0.197643
     5  O   -0.188030
     6  N    0.241582
     7  O   -0.188017
     8  O   -0.197668
     9  N    0.241573
    10  O   -0.197673
    11  O   -0.188009
    12  H    0.184820
    13  H    0.184812
    14  H    0.184828
 Sum of Mulliken charges =  -0.00000

 Dipole moment (field-independent basis, Debye):
    X=             -0.0006    Y=              0.0005    Z=              3.6255  Tot=              3.6255
  Exact polarizability:  57.712  -0.002  57.695  -0.011   0.004  61.289
 Approx polarizability:  75.409  -0.005  75.363  -0.015   0.010  86.421
 Rotating derivatives to standard orientation.
 Full mass-weighted force constant matrix:
 Low frequencies ---   -4.7695    0.0009    0.0011    0.0012    3.7353    8.1273
 Low frequencies ---   46.2189   46.5906  105.0796
 Diagonal vibrational polarizability:
       17.6667501      17.6288424      10.9127985
 Harmonic frequencies (cm**-1), IR intensities (KM/Mole), Raman scattering
 activities (A**4/AMU), depolarization ratios for plane and unpolarized

                      1                      2                      3
                      A                      A                      A
 Frequencies --     46.2146                46.5904               105.0794
 Red. masses --     13.9490                13.9474                15.2726
 Frc consts  --      0.0176                 0.0178                 0.0994
 IR Inten    --      0.6027                 0.6083                 0.0141

                      4                      5                      6
                      A                      A                      A
 Frequencies --    189.3679               189.5058               228.6321
 Red. masses --     12.2018                12.1847                 2.3900
 Frc consts  --      0.2578                 0.2578                 0.0736
 IR Inten    --      3.3171                 3.3138                 6.4805

                      7                      8                      9
                      A                      A                      A
 Frequencies --    263.5495               323.2010               324.1975
 Red. masses --      1.6011                 3.2652                 3.2758
 Frc consts  --      0.0655                 0.2010                 0.2029
 IR Inten    --      3.9802                 0.1999                 0.1997

                     10                     11                     12
                      A                      A                      A
 Frequencies --    401.2535               434.4228               434.6328
 Red. masses --     11.3931                14.0400                14.0365
 Frc consts  --      1.0808                 1.5611                 1.5623
 IR Inten    --      2.4535                 1.8217                 1.8176

                     13                     14                     15
                      A                      A                      A
 Frequencies --    539.0942               692.0211               692.1678
 Red. masses --      7.0982                 7.4052                 7.4316
 Frc consts  --      1.2154                 2.0894                 2.0977
 IR Inten    --     11.6704                17.9559                17.9141

                     16                     17                     18
                      A                      A                      A
 Frequencies --    756.9634               833.0586               833.2669
 Red. masses --      7.9274                 6.0950                 6.1143
 Frc consts  --      2.6763                 2.4922                 2.5013
 IR Inten    --      0.1777                27.4997                27.6159

                     19                     20                     21
                      A                      A                      A
 Frequencies --    913.7055               933.9098               934.3858
 Red. masses --     13.9347                 3.2443                 3.2344
 Frc consts  --      6.8542                 1.6672                 1.6638
 IR Inten    --     14.4440                43.9368                43.7714

                     22                     23                     24
                      A                      A                      A
 Frequencies --   1182.0922              1182.3924              1236.8907
 Red. masses --      2.4654                 2.4609                 5.8116
 Frc consts  --      2.0297                 2.0271                 5.2385
 IR Inten    --      5.6454                 5.6932                 8.6222

                     25                     26                     27
                      A                      A                      A
 Frequencies --   1418.7997              1458.5173              1458.8284
 Red. masses --      1.3443                 4.8547                 5.2747
 Frc consts  --      1.5943                 6.0846                 6.6139
 IR Inten    --     16.9667                94.6302                98.2944

                     28                     29                     30
                      A                      A                      A
 Frequencies --   1479.1915              1480.5610              1523.1356
 Red. masses --      1.2268                 1.2023                10.9819
 Frc consts  --      1.5815                 1.5528                15.0108
 IR Inten    --     60.7300                57.1874                31.0357

                     31                     32                     33
                      A                      A                      A
 Frequencies --   1812.1973              1817.2500              1817.4241
 Red. masses --     14.4689                14.3536                14.3508
 Frc consts  --     27.9960                27.9281                27.9279
 IR Inten    --    401.7428               220.0597               220.1886

                     34                     35                     36
                      A                      A                      A
 Frequencies --   3084.0470              3199.1883              3199.9773
 Red. masses --      1.0353                 1.1075                 1.1074
 Frc consts  --      5.8020                 6.6782                 6.6813
 IR Inten    --      1.2785                 3.0197                 3.0072

 Normal termination of Gaussian 16 at Mon Jul 10 21:14:40 2023.
