 Gaussian 16, Revision B.01,
 Gaussian 16:  ES64L-G16RevB.01 20-Dec-2017

 ----------------------------------------------------------------------
 #T wB97XD/def2svpp opt=tight freq int(grid=ultrafine) scf=(verytight,q
 c)
 ----------------------------------------------------------------------
 --------------
 Comment gs min
 --------------
 Symbolic Z-matrix:
 Charge =  0 Multiplicity = 1

 SCF Done:  E(RwB97XD) =  -3046.81709040     a.u. after    8 cycles
 SCF Done:  E(RwB97XD) =  -3046.82676775     a.u. after   10 cycles
 SCF Done:  E(RwB97XD) =  -3046.82512557     a.u. after   13 cycles
 SCF Done:  E(RwB97XD) =  -3046.81892917     a.u. after   18 cycles
 SCF Done:  E(RwB97XD) =  -3046.81647643     a.u. after   15 cycles
 SCF Done:  E(RwB97XD) =  -3046.82718725     a.u. after    3 cycles
 SCF Done:  E(RwB97XD) =  -3046.82833263     a.u. after   10 cycles
 SCF Done:  E(RwB97XD) =  -3046.82841261     a.u. after   11 cycles
 SCF Done:  E(RwB97XD) =  -3046.82872766     a.u. after   10 cycles
 SCF Done:  E(RwB97XD) =  -3046.82881973     a.u. after    7 cycles
 SCF Done:  E(RwB97XD) =  -3046.83393249     a.u. after    3 cycles
 SCF Done:  E(RwB97XD) =  -3046.83393377     a.u. after    3 cycles
 SCF Done:  E(RwB97XD) =  -3046.83393422     a.u. after    3 cycles
 SCF Done:  E(RwB97XD) =  -3046.83393444     a.u. after    3 cycles
 SCF Done:  E(RwB97XD) =  -3046.83393447     a.u. after    2 cycles
 SCF Done:  E(RwB97XD) =  -3046.83393447     a.u. after    2 cycles
 SCF Done:  E(RwB97XD) =  -3046.83393447     a.u. after    2 cycles
 SCF Done:  E(RwB97XD) =  -3046.83393446     a.u. after    2 cycles
 SCF Done:  E(RwB97XD) =  -3046.83393447     a.u. after    2 cycles
 Optimization completed.
    -- Stationary point found.
 Normal termination of Gaussian 16 at Thu Aug  4 16:39:31 2022.

 ---------------------------------------------------------------------
 #T Geom=AllCheck Guess=TCheck SCRF=Check GenChk RwB97XD/def2SVPP Freq
 ---------------------------------------------------------------------
 Structure from the checkpoint file:  "/scratch/user/peterchao1/peterchao1/6097810_1659647584000000809350894/Gau-201498.chk"
 --------------
 Comment gs min
 --------------
 Charge =  0 Multiplicity = 1

                         Standard orientation:
 ---------------------------------------------------------------------
 Center     Atomic      Atomic             Coordinates (Angstroms)
 Number     Number       Type             X           Y           Z
 ---------------------------------------------------------------------
      1          8           0       -1.716794   -1.376558   -1.044853
      2          6           0       -0.317711   -1.264975   -1.126305
      3          6           0        0.147503   -0.406316    0.049901
      4         35           0       -0.355895    1.448732   -0.222374
      5          6           0       -0.375287   -0.910358    1.411489
      6          8           0       -1.735392   -0.727267    1.582598
      7          7           0        1.675279   -0.432289    0.078855
      8          8           0        2.237148   -0.840326   -0.911645
      9          8           0        2.214739   -0.042325    1.083030
     10          1           0       -2.057325   -1.810973   -1.836640
     11          1           0        0.009639   -0.809094   -2.075067
     12          1           0        0.169441   -2.254795   -1.033000
     13          1           0        0.145450   -0.359519    2.207014
     14          1           0       -0.069948   -1.978876    1.482255
     15          1           0       -2.192529   -1.084641    0.802992
 ---------------------------------------------------------------------

 SCF Done:  E(RwB97XD) =  -3046.83393447     a.u. after    1 cycles

 The electronic state is 1-A.
 Alpha  occ. eigenvalues -- -483.07446 -62.65658 -56.46457 -56.46054 -56.46046
 Alpha  occ. eigenvalues --  -19.30979 -19.30933 -19.30352 -19.25726 -14.70441
 Alpha  occ. eigenvalues --  -10.42381 -10.38698 -10.36802  -8.82608  -6.65249
 Alpha  occ. eigenvalues --   -6.63794  -6.63768  -2.75595  -2.75190  -2.75169
 Alpha  occ. eigenvalues --   -2.74009  -2.74008  -1.36020  -1.18271  -1.16927
 Alpha  occ. eigenvalues --   -1.12927  -0.97946  -0.86809  -0.81329  -0.79172
 Alpha  occ. eigenvalues --   -0.68179  -0.67798  -0.66497  -0.62686  -0.61950
 Alpha  occ. eigenvalues --   -0.61157  -0.57636  -0.57010  -0.52342  -0.50292
 Alpha  occ. eigenvalues --   -0.48289  -0.43078  -0.42019  -0.41525  -0.40623
 Alpha  occ. eigenvalues --   -0.40030  -0.38340  -0.37675  -0.36873
 Alpha virt. eigenvalues --   -0.01929   0.06757   0.09091   0.14669   0.16321
 Alpha virt. eigenvalues --    0.18647   0.19104   0.21453   0.22416   0.26276
 Alpha virt. eigenvalues --    0.26565   0.27916   0.30978   0.37619   0.39243

 Mulliken charges:
               1
     1  O   -0.493025
     2  C    0.110525
     3  C   -0.299883
     4  Br   0.020931
     5  C    0.116128
     6  O   -0.471061
     7  N    0.263834
     8  O   -0.231729
     9  O   -0.214544
    10  H    0.345948
    11  H    0.138005
    12  H    0.123283
    13  H    0.151332
    14  H    0.104561
    15  H    0.335695
 Sum of Mulliken charges =  -0.00000

 Dipole moment (field-independent basis, Debye):
    X=             -2.1735    Y=             -2.6201    Z=             -2.8477  Tot=              4.4383
  Exact polarizability:  63.569  -3.098  67.560   1.292   3.471  64.939
 Approx polarizability:  72.144  -5.077  78.158   0.814   8.478  83.873
   1 Symmetry operations used in ECPInt.
 ECPInt:  NShTT=    2628 NPrTT=   11487 LenC2=    2584 LenP2D=    8495.
 LDataN:  DoStor=T MaxTD1= 6 Len=  172
 Calling FoFJK, ICntrl=    100127 FMM=F ISym2X=0 I1Cent= 0 IOpClX= 0 NMat=1 NMatS=1 NMatT=0.
 Full mass-weighted force constant matrix:
 Low frequencies ---   -6.9726   -0.0161   -0.0160   -0.0058    4.9442    7.0854
 Low frequencies ---   41.5494  116.7802  139.7500
 Diagonal vibrational polarizability:

                      1                      2                      3
                      A                      A                      A
 Frequencies --     41.4755               116.7782               139.7458
 Red. masses --     14.7507                 5.1984                 6.0919
 Frc consts  --      0.0150                 0.0418                 0.0701
 IR Inten    --      0.0139                 1.3938                 1.3607

                      4                      5                      6
                      A                      A                      A
 Frequencies --    182.6075               196.7894               217.9679
 Red. masses --     10.4777                 3.0344                 1.2326
 Frc consts  --      0.2059                 0.0692                 0.0345
 IR Inten    --      1.3535                26.3526               104.3133

                      7                      8                      9
                      A                      A                      A
 Frequencies --    268.7905               301.4689               335.9561
 Red. masses --      5.3701                 4.6350                 2.4667
 Frc consts  --      0.2286                 0.2482                 0.1640
 IR Inten    --      2.4444                 2.0530                 1.2423

                     10                     11                     12
                      A                      A                      A
 Frequencies --    401.9857               424.2792               514.2440
 Red. masses --      8.8768                 6.0251                 4.9428
 Frc consts  --      0.8451                 0.6390                 0.7701
 IR Inten    --      2.7827                 5.0194                 4.7068

                     13                     14                     15
                      A                      A                      A
 Frequencies --    556.8203               576.5352               746.3609
 Red. masses --      1.3700                 2.4371                 7.2920
 Frc consts  --      0.2503                 0.4773                 2.3933
 IR Inten    --     79.9667               121.0639                 3.2475

                     16                     17                     18
                      A                      A                      A
 Frequencies --    839.1933               907.0829               971.9117
 Red. masses --     10.9521                 2.6185                 1.8069
 Frc consts  --      4.5443                 1.2694                 1.0056
 IR Inten    --     64.2551                 3.4193                 0.3685

                     19                     20                     21
                      A                      A                      A
 Frequencies --   1000.5915              1132.3260              1147.6188
 Red. masses --      4.8870                 2.0887                 3.4217
 Frc consts  --      2.8827                 1.5778                 2.6552
 IR Inten    --      0.7180                24.5628                15.6000

                     22                     23                     24
                      A                      A                      A
 Frequencies --   1182.0676              1199.3933              1267.0564
 Red. masses --      2.4007                 3.2774                 1.2809
 Frc consts  --      1.9764                 2.7778                 1.2115
 IR Inten    --    198.0733                 5.0436                30.7541

                     25                     26                     27
                      A                      A                      A
 Frequencies --   1291.8253              1310.9416              1397.8384
 Red. masses --      1.5110                 1.1423                 1.3142
 Frc consts  --      1.4857                 1.1567                 1.5130
 IR Inten    --     34.2565                16.9005                 6.8435

                     28                     29                     30
                      A                      A                      A
 Frequencies --   1457.9389              1485.2288              1499.0953
 Red. masses --      1.3702                 1.7364                 4.0955
 Frc consts  --      1.7160                 2.2567                 5.4227
 IR Inten    --    123.3558                 4.1823                65.6146

                     31                     32                     33
                      A                      A                      A
 Frequencies --   1505.6465              1518.7266              1778.9364
 Red. masses --      1.0854                 1.0894                14.2740
 Frc consts  --      1.4498                 1.4804                26.6145
 IR Inten    --     14.7159                 1.5484               283.1546

                     34                     35                     36
                      A                      A                      A
 Frequencies --   2972.2017              3036.1048              3121.6514
 Red. masses --      1.0729                 1.0651                 1.1042
 Frc consts  --      5.5840                 5.7846                 6.3396
 IR Inten    --     43.6144                23.9432                 9.9213

                     37                     38                     39
                      A                      A                      A
 Frequencies --   3161.3398              3697.5301              3802.0017
 Red. masses --      1.0945                 1.0651                 1.0669
 Frc consts  --      6.4448                 8.5796                 9.0867
 IR Inten    --      1.8138               151.7501                87.5549

 Optimization completed.
    -- Stationary point found.
 Normal termination of Gaussian 16 at Thu Aug  4 16:41:15 2022.
