 Gaussian 16, Revision B.01,
 Gaussian 16:  ES64L-G16RevB.01 20-Dec-2017

 ----------------------------------------------------------------------
 #T wB97XD/def2svpp opt=tight freq int(grid=ultrafine) scf=(verytight,q
 c) Volume=tight
 ----------------------------------------------------------------------
 -------
 Monomer
 -------
 Symbolic Z-matrix:
 Charge =  0 Multiplicity = 1

 SCF Done:  E(RwB97XD) =  -252.826586863     a.u. after    6 cycles
 SCF Done:  E(RwB97XD) =  -252.828769329     a.u. after    5 cycles
 SCF Done:  E(RwB97XD) =  -252.828832767     a.u. after    4 cycles
 SCF Done:  E(RwB97XD) =  -252.828838877     a.u. after    4 cycles
 SCF Done:  E(RwB97XD) =  -252.828839516     a.u. after    2 cycles
 SCF Done:  E(RwB97XD) =  -252.828839587     a.u. after    2 cycles
 SCF Done:  E(RwB97XD) =  -252.828839595     a.u. after    2 cycles
 Optimization completed.
    -- Stationary point found.

 1\1\GINC-C191\FOpt\RwB97XD\def2SVPP\C5H13N1\PETERCHAO1\29-Mar-2024\0\\
 #T wB97XD/def2svpp opt=tight freq int(grid=ultrafine) scf=(verytight,q
 c) Volume=tight\\Monomer\\0,1\C,0.5354401808,0.8845431009,-1.255572916
 2\C,0.4486945599,0.0075922429,0.0000508347\C,1.6071421807,-0.997571452
 1,0.002515165\C,0.5350133072,0.8902002454,1.2517338647\C,-0.880406046,
 -0.7935731632,0.001633356\N,-2.12846812,-0.0576350155,-0.000217345\H,1
 .4924121635,1.4353935328,-1.2892738431\H,-0.275492007,1.634382023,-1.2
 826786055\H,0.4655637034,0.2733237668,-2.174058575\H,1.5705845912,-1.6

 Normal termination of Gaussian 16 at Fri Mar 29 15:37:05 2024.

 ---------------------------------------------------------------------
 #T Geom=AllCheck Guess=TCheck SCRF=Check GenChk RwB97XD/def2SVPP Freq
 ---------------------------------------------------------------------
 Structure from the checkpoint file:  "monomer.chk"
 -------
 Monomer
 -------
 Charge =  0 Multiplicity = 1

                         Standard orientation:
 ---------------------------------------------------------------------
 Center     Atomic      Atomic             Coordinates (Angstroms)
 Number     Number       Type             X           Y           Z
 ---------------------------------------------------------------------
      1          6           0        0.478393   -1.253877   -0.890201
      2          6           0        0.419667   -0.000002   -0.008438
      3          6           0        1.609273    0.000252    0.959652
      4          6           0        0.478364    1.253436   -0.890825
      5          6           0       -0.883476    0.000194    0.834293
      6          7           0       -2.154151    0.000029    0.138124
      7          1           0        1.417489   -1.286632   -1.471058
      8          1           0       -0.355815   -1.279342   -1.614116
      9          1           0        0.427638   -2.173576   -0.278920
     10          1           0        1.593133   -0.892255    1.611296
     11          1           0        1.593114    0.893082    1.610853
     12          1           0        2.568920    0.000126    0.412185
     13          1           0       -0.355847    1.278523   -1.614748
     14          1           0        1.417457    1.285922   -1.471700
     15          1           0        0.427592    2.173438   -0.280000
     16          1           0       -0.865077    0.883722    1.499957
     17          1           0       -0.865073   -0.883019    1.500375
     18          1           0       -2.268896   -0.824414   -0.448754
     19          1           0       -2.268908    0.824208   -0.449121
 ---------------------------------------------------------------------

 SCF Done:  E(RwB97XD) =  -252.828839595     a.u. after    1 cycles

 The electronic state is 1-A.
 Alpha  occ. eigenvalues --  -14.41089 -10.30721 -10.30222 -10.28166 -10.28165
 Alpha  occ. eigenvalues --  -10.27979  -0.97246  -0.89736  -0.77462  -0.77444
 Alpha  occ. eigenvalues --   -0.74154  -0.62273  -0.58293  -0.55099  -0.53214
 Alpha  occ. eigenvalues --   -0.52810  -0.49497  -0.47051  -0.45888  -0.44689
 Alpha  occ. eigenvalues --   -0.43693  -0.42266  -0.40583  -0.40166  -0.30722
 Alpha virt. eigenvalues --    0.12200   0.15601   0.17034   0.18130   0.19025
 Alpha virt. eigenvalues --    0.19374   0.20762   0.22161   0.23860   0.25140
 Alpha virt. eigenvalues --    0.25508   0.27087   0.28090   0.28482   0.30294

 Mulliken charges:
               1
     1  C   -0.283668
     2  C   -0.252011
     3  C   -0.269562
     4  C   -0.283669
     5  C   -0.046360
     6  N   -0.507248
     7  H    0.116204
     8  H    0.102323
     9  H    0.112890
    10  H    0.113168
    11  H    0.113168
    12  H    0.113823
    13  H    0.102323
    14  H    0.116204
    15  H    0.112890
    16  H    0.097682
    17  H    0.097683
    18  H    0.222078
    19  H    0.222079
 Sum of Mulliken charges =   0.00000

 Dipole moment (field-independent basis, Debye):
    X=              0.7906    Y=             -0.0002    Z=             -1.0137  Tot=              1.2856
  Exact polarizability:  62.304   0.000  60.330   1.708  -0.000  59.732
 Approx polarizability:  63.010   0.000  63.452   1.418  -0.000  62.299
   1 Symmetry operations used in ECPInt.
 ECPInt:  NShTT=    1953 NPrTT=    7867 LenC2=    1951 LenP2D=    6552.
 LDataN:  DoStor=T MaxTD1= 6 Len=  172
 Calling FoFJK, ICntrl=    100127 FMM=F ISym2X=0 I1Cent= 0 IOpClX= 0 NMat=1 NMatS=1 NMatT=0.
 Full mass-weighted force constant matrix:
 Low frequencies ---  -11.9309   -4.7388   -0.0003    0.0004    0.0005    0.7255
 Low frequencies ---   98.9221  220.4470  265.2685
 Diagonal vibrational polarizability:

                      1                      2                      3
                      A                      A                      A
 Frequencies --     98.9160               220.4468               265.2673
 Red. masses --      1.7768                 1.0343                 2.9033
 Frc consts  --      0.0102                 0.0296                 0.1204
 IR Inten    --      2.5972                 2.9780                 1.9789

                      4                      5                      6
                      A                      A                      A
 Frequencies --    269.3233               279.3705               322.6898
 Red. masses --      1.0550                 1.0302                 1.3386
 Frc consts  --      0.0451                 0.0474                 0.0821
 IR Inten    --      6.2874                 0.5821                25.6339

                      7                      8                      9
                      A                      A                      A
 Frequencies --    344.6578               364.4525               415.1154
 Red. masses --      1.7654                 2.3842                 2.2665
 Frc consts  --      0.1236                 0.1866                 0.2301
 IR Inten    --      7.0624                 0.4615                 0.6332

                     10                     11                     12
                      A                      A                      A
 Frequencies --    435.3679               522.8367               729.8550
 Red. masses --      1.8530                 2.3119                 2.4833
 Frc consts  --      0.2069                 0.3723                 0.7794
 IR Inten    --      2.5311                13.7890                60.1690

                     13                     14                     15
                      A                      A                      A
 Frequencies --    838.3553               869.1186               921.2990
 Red. masses --      1.6767                 1.3321                 2.0797
 Frc consts  --      0.6943                 0.5929                 1.0401
 IR Inten    --    193.2695                 0.0906                40.0189

                     16                     17                     18
                      A                      A                      A
 Frequencies --    958.6406               959.1292               965.3152
 Red. masses --      1.5305                 1.5022                 1.2160
 Frc consts  --      0.8287                 0.8142                 0.6676
 IR Inten    --      0.7707                 3.2168                 0.0070

                     19                     20                     21
                      A                      A                      A
 Frequencies --   1039.6576              1052.6359              1159.1439
 Red. masses --      1.3089                 1.4600                 1.2782
 Frc consts  --      0.8336                 0.9532                 1.0119
 IR Inten    --      0.2120                 5.0829                 0.1769

                     22                     23                     24
                      A                      A                      A
 Frequencies --   1160.6229              1259.5183              1294.2786
 Red. masses --      3.5514                 2.3465                 2.8260
 Frc consts  --      2.8186                 2.1932                 2.7891
 IR Inten    --     18.3863                 4.3947                 1.0120

                     25                     26                     27
                      A                      A                      A
 Frequencies --   1307.7512              1392.8392              1403.9912
 Red. masses --      2.1542                 1.2755                 1.2213
 Frc consts  --      2.1706                 1.4579                 1.4184
 IR Inten    --      1.4063                 7.9790                 6.5628

                     28                     29                     30
                      A                      A                      A
 Frequencies --   1410.4228              1412.5335              1438.0157
 Red. masses --      1.2980                 1.3639                 1.2625
 Frc consts  --      1.5213                 1.6033                 1.5382
 IR Inten    --      7.2588                 6.0064                 8.4690

                     31                     32                     33
                      A                      A                      A
 Frequencies --   1474.0536              1475.1874              1481.5032
 Red. masses --      1.0926                 1.0462                 1.0443
 Frc consts  --      1.3988                 1.3414                 1.3505
 IR Inten    --      0.4976                 0.0021                 0.4165

                     34                     35                     36
                      A                      A                      A
 Frequencies --   1482.4756              1503.1101              1504.1303
 Red. masses --      1.0429                 1.0660                 1.0721
 Frc consts  --      1.3504                 1.4190                 1.4290
 IR Inten    --      0.3680                13.5946                 6.1806

                     37                     38                     39
                      A                      A                      A
 Frequencies --   1515.5064              1672.6979              3017.8985
 Red. masses --      1.0705                 1.1023                 1.0377
 Frc consts  --      1.4486                 1.8172                 5.5686
 IR Inten    --     21.3310                19.9769                23.1171

                     40                     41                     42
                      A                      A                      A
 Frequencies --   3018.6628              3021.4571              3027.4055
 Red. masses --      1.0371                 1.0480                 1.0515
 Frc consts  --      5.5678                 5.6372                 5.6781
 IR Inten    --     35.7103                41.3068                16.6252

                     43                     44                     45
                      A                      A                      A
 Frequencies --   3080.1406              3109.0183              3110.7845
 Red. masses --      1.1071                 1.1054                 1.1047
 Frc consts  --      6.1886                 6.2951                 6.2985
 IR Inten    --     24.6179                 0.3286                 6.3887

                     46                     47                     48
                      A                      A                      A
 Frequencies --   3111.1729              3112.2298              3112.9304
 Red. masses --      1.1036                 1.1045                 1.1041
 Frc consts  --      6.2940                 6.3029                 6.3036
 IR Inten    --     19.3970                24.3138                39.9920

                     49                     50                     51
                      A                      A                      A
 Frequencies --   3115.9147              3513.3821              3602.5504
 Red. masses --      1.1031                 1.0497                 1.0945
 Frc consts  --      6.3101                 7.6346                 8.3690
 IR Inten    --     61.0858                 0.1125                 1.7038

 Optimization completed.
    -- Stationary point found.

 1\1\GINC-C191\Freq\RwB97XD\def2SVPP\C5H13N1\PETERCHAO1\29-Mar-2024\0\\
 #T Geom=AllCheck Guess=TCheck SCRF=Check GenChk RwB97XD/def2SVPP Freq\
 \Monomer\\0,1\C,0.5354401808,0.8845431009,-1.2555729162\C,0.4486945599
 ,0.0075922429,0.0000508347\C,1.6071421807,-0.9975714521,0.002515165\C,
 0.5350133072,0.8902002454,1.2517338647\C,-0.880406046,-0.7935731632,0.
 001633356\N,-2.12846812,-0.0576350155,-0.000217345\H,1.4924121635,1.43
 53935328,-1.2892738431\H,-0.275492007,1.634382023,-1.2826786055\H,0.46
 55637034,0.2733237668,-2.174058575\H,1.5705845912,-1.650171852,-0.8886

 Normal termination of Gaussian 16 at Fri Mar 29 15:38:25 2024.
