 Gaussian 16, Revision B.01,
 Gaussian 16:  ES64L-G16RevB.01 20-Dec-2017

 ------------------------------------------------------------------
 #T wB97XD/def2svpp opt freq int(grid=ultrafine) scf=(verytight,qc)
 ------------------------------------------------------------------
 --------------
 Comment gs min
 --------------
 Symbolic Z-matrix:
 Charge =  0 Multiplicity = 1

 SCF Done:  E(RwB97XD) =  -437.034679042     a.u. after    7 cycles
 SCF Done:  E(RwB97XD) =  -437.037897831     a.u. after    5 cycles
 Optimization completed.
    -- Stationary point found.
 Normal termination of Gaussian 16 at Fri Aug  5 13:07:05 2022.

 ---------------------------------------------------------------------
 #T Geom=AllCheck Guess=TCheck SCRF=Check GenChk RwB97XD/def2SVPP Freq
 ---------------------------------------------------------------------
 Structure from the checkpoint file:  "/scratch/user/peterchao1/peterchao1/6101755_1659722809000000954897366/Gau-186995.chk"
 --------------
 Comment gs min
 --------------
 Charge =  0 Multiplicity = 1

                         Standard orientation:
 ---------------------------------------------------------------------
 Center     Atomic      Atomic             Coordinates (Angstroms)
 Number     Number       Type             X           Y           Z
 ---------------------------------------------------------------------
      1          9           0       -0.811466   -0.600829    0.843531
      2          6           0       -0.000003    0.000015    0.000009
      3          9           0        0.310168   -0.827333   -0.974830
      4          9           0       -0.594298    1.062562   -0.498856
      5          9           0        1.095597    0.365589    0.630148
 ---------------------------------------------------------------------

 SCF Done:  E(RwB97XD) =  -437.037897831     a.u. after    1 cycles

 The electronic state is 1-A.
 Alpha  occ. eigenvalues --  -24.88117 -24.88110 -24.88109 -24.88109 -10.64067
 Alpha  occ. eigenvalues --   -1.47968  -1.35600  -1.35599  -1.35598  -0.82626
 Alpha  occ. eigenvalues --   -0.74279  -0.74279  -0.74279  -0.60589  -0.60588
 Alpha  occ. eigenvalues --   -0.57712  -0.57711  -0.57711  -0.53215  -0.53215
 Alpha  occ. eigenvalues --   -0.53214
 Alpha virt. eigenvalues --    0.26717   0.27741   0.27746   0.27746   0.40007
 Alpha virt. eigenvalues --    0.51508   0.51509   0.51510   1.08950   1.08952
 Alpha virt. eigenvalues --    1.15133   1.15134   1.15134   1.17729   1.38485

 Mulliken charges:
               1
     1  F   -0.150674
     2  C    0.602753
     3  F   -0.150695
     4  F   -0.150696
     5  F   -0.150688
 Sum of Mulliken charges =  -0.00000

 Dipole moment (field-independent basis, Debye):
    X=             -0.0000    Y=              0.0001    Z=              0.0000  Tot=              0.0001
  Exact polarizability:  12.029  -0.002  12.028  -0.000  -0.000  12.030
 Approx polarizability:  13.051  -0.000  13.051   0.000  -0.000  13.050
   1 Symmetry operations used in ECPInt.
 ECPInt:  NShTT=     465 NPrTT=    1895 LenC2=     460 LenP2D=    1535.
 LDataN:  DoStor=T MaxTD1= 6 Len=  172
 Calling FoFJK, ICntrl=    100127 FMM=F ISym2X=0 I1Cent= 0 IOpClX= 0 NMat=1 NMatS=1 NMatT=0.
 Full mass-weighted force constant matrix:
 Low frequencies ---  -12.4053   -0.0012   -0.0010   -0.0006    9.6223   11.5535
 Low frequencies ---  444.3070  444.4753  642.5968
 Diagonal vibrational polarizability:

                      1                      2                      3
                      A                      A                      A
 Frequencies --    444.3070               444.4753               642.5968
 Red. masses --     18.9984                18.9984                18.1751
 Frc consts  --      2.2097                 2.2114                 4.4218
 IR Inten    --      0.0000                 0.0000                 5.9646

                      4                      5                      6
                      A                      A                      A
 Frequencies --    642.6720               642.7264               938.9449
 Red. masses --     18.1750                18.1756                18.9984
 Frc consts  --      4.4229                 4.4237                 9.8684
 IR Inten    --      5.9636                 5.9576                 0.0000

                      7                      8                      9
                      A                      A                      A
 Frequencies --   1339.4921              1339.5353              1339.8968
 Red. masses --     13.0270                13.0272                13.0271
 Frc consts  --     13.7713                13.7724                13.7798
 IR Inten    --    455.4677               455.3735               455.1870

 Optimization completed.
    -- Stationary point found.
 Normal termination of Gaussian 16 at Fri Aug  5 13:07:16 2022.
