 Gaussian 16, Revision B.01,
 Gaussian 16:  ES64L-G16RevB.01 20-Dec-2017

 ----------------------------------------------------------------------
 #T wB97XD/def2svpp opt=tight freq int(grid=ultrafine) scf=(verytight,q
 c) Volume=tight
 ----------------------------------------------------------------------
 -----
 Dimer
 -----
 Symbolic Z-matrix:
 Charge =  0 Multiplicity = 1

 SCF Done:  E(RwB97XD) =  -3066.42692416     a.u. after    8 cycles
 SCF Done:  E(RwB97XD) =  -3066.42607064     a.u. after   13 cycles
 SCF Done:  E(RwB97XD) =  -3066.42541230     a.u. after   14 cycles
 SCF Done:  E(RwB97XD) =  -3066.37799761     a.u. after   16 cycles
 SCF Done:  E(RwB97XD) =  -3066.41735152     a.u. after   11 cycles
 SCF Done:  E(RwB97XD) =  -3066.42434726     a.u. after   10 cycles
 SCF Done:  E(RwB97XD) =  -3066.42726211     a.u. after    3 cycles
 SCF Done:  E(RwB97XD) =  -3066.42797825     a.u. after    8 cycles
 SCF Done:  E(RwB97XD) =  -3066.42812980     a.u. after    9 cycles
 SCF Done:  E(RwB97XD) =  -3066.42839171     a.u. after   11 cycles
 SCF Done:  E(RwB97XD) =  -3066.42933498     a.u. after    2 cycles
 SCF Done:  E(RwB97XD) =  -3066.42933499     a.u. after    2 cycles
 SCF Done:  E(RwB97XD) =  -3066.42933498     a.u. after    2 cycles
 SCF Done:  E(RwB97XD) =  -3066.42933498     a.u. after    2 cycles
 SCF Done:  E(RwB97XD) =  -3066.42933498     a.u. after    2 cycles
 SCF Done:  E(RwB97XD) =  -3066.42933498     a.u. after    2 cycles
 SCF Done:  E(RwB97XD) =  -3066.42933498     a.u. after    2 cycles
 SCF Done:  E(RwB97XD) =  -3066.42933498     a.u. after    2 cycles
 SCF Done:  E(RwB97XD) =  -3066.42933498     a.u. after    2 cycles
 Optimization completed.
    -- Stationary point found.
 Normal termination of Gaussian 16 at Sun Feb  5 16:07:07 2023.

 ---------------------------------------------------------------------
 #T Geom=AllCheck Guess=TCheck SCRF=Check GenChk RwB97XD/def2SVPP Freq
 ---------------------------------------------------------------------
 Structure from the checkpoint file:  "19.chk"
 -----
 Dimer
 -----
 Charge =  0 Multiplicity = 1

                         Standard orientation:
 ---------------------------------------------------------------------
 Center     Atomic      Atomic             Coordinates (Angstroms)
 Number     Number       Type             X           Y           Z
 ---------------------------------------------------------------------
      1          8           0       -0.812739    0.327100    1.469709
      2          6           0       -2.202608    0.295192    1.458049
      3          6           0       -2.784606    0.029336    0.059731
      4         17           0       -4.559036    0.007656    0.182901
      5         17           0       -2.273899    1.355608   -1.035088
      6         17           0       -2.194001   -1.519562   -0.576647
      7          1           0       -0.483289    1.032172    0.885609
      8          1           0       -2.644992    1.240769    1.822631
      9          1           0       -2.521550   -0.523825    2.120102
     10          8           0        1.117740   -1.595946    0.918477
     11          6           0        2.176920   -0.784615    1.250254
     12          6           0        2.754349   -0.003164    0.048534
     13         17           0        4.140188    0.966375    0.616951
     14         17           0        3.275542   -1.115507   -1.230033
     15         17           0        1.512307    1.111636   -0.633753
     16          1           0        0.291114   -1.083633    0.999956
     17          1           0        3.007181   -1.406485    1.627103
     18          1           0        1.928491   -0.034212    2.026078
 ---------------------------------------------------------------------

 SCF Done:  E(RwB97XD) =  -3066.42933498     a.u. after    1 cycles

 The electronic state is 1-A.
 Alpha  occ. eigenvalues -- -101.71206-101.71077-101.70686-101.70033-101.69450
 Alpha  occ. eigenvalues -- -101.68852 -19.30761 -19.25199 -10.48962 -10.47081
 Alpha  occ. eigenvalues --  -10.39628 -10.36726  -9.62038  -9.61924  -9.61510
 Alpha  occ. eigenvalues --   -9.60838  -9.60295  -9.59701  -7.37453  -7.37357
 Alpha  occ. eigenvalues --   -7.36950  -7.36426  -7.36390  -7.36286  -7.36280
 Alpha  occ. eigenvalues --   -7.36236  -7.35868  -7.35862  -7.35718  -7.35246
 Alpha  occ. eigenvalues --   -7.35197  -7.35144  -7.34663  -7.34659  -7.34068
 Alpha  occ. eigenvalues --   -7.34043  -1.17620  -1.12940  -1.06002  -1.04094
 Alpha  occ. eigenvalues --   -0.95276  -0.95019  -0.93746  -0.93285  -0.84855
 Alpha  occ. eigenvalues --   -0.81801  -0.72108  -0.69110  -0.65446  -0.63380
 Alpha  occ. eigenvalues --   -0.60707  -0.60567  -0.58389  -0.57762  -0.56038
 Alpha  occ. eigenvalues --   -0.54776  -0.53658  -0.51464  -0.47996  -0.45076
 Alpha  occ. eigenvalues --   -0.45023  -0.44408  -0.43664  -0.43407  -0.42519
 Alpha  occ. eigenvalues --   -0.42154  -0.41418  -0.41302  -0.40500  -0.40088
 Alpha  occ. eigenvalues --   -0.39746  -0.39542  -0.38454  -0.36683
 Alpha virt. eigenvalues --    0.04774   0.05967   0.07506   0.08186   0.09080
 Alpha virt. eigenvalues --    0.10079   0.13218   0.15983   0.17756   0.18749
 Alpha virt. eigenvalues --    0.21122   0.22495   0.22915   0.25536   0.26906

 Mulliken charges:
               1
     1  O   -0.491313
     2  C    0.103419
     3  C   -0.111829
     4  Cl  -0.025949
     5  Cl  -0.048968
     6  Cl  -0.010177
     7  H    0.335555
     8  H    0.139110
     9  H    0.151012
    10  O   -0.476506
    11  C    0.084125
    12  C   -0.086526
    13  Cl  -0.045946
    14  Cl  -0.026388
    15  Cl  -0.074254
    16  H    0.331994
    17  H    0.130241
    18  H    0.122401
 Sum of Mulliken charges =  -0.00000

 Dipole moment (field-independent basis, Debye):
    X=             -1.9462    Y=              1.7465    Z=              1.9429  Tot=              3.2577
  Exact polarizability: 126.472  -2.947  99.435  -1.817   2.648  89.869
 Approx polarizability: 133.233  -3.285 126.029  -1.340   3.421 107.911
   1 Symmetry operations used in ECPInt.
 ECPInt:  NShTT=    4656 NPrTT=   21144 LenC2=    4179 LenP2D=   12497.
 LDataN:  DoStor=T MaxTD1= 6 Len=  172
 Calling FoFJK, ICntrl=    100127 FMM=F ISym2X=0 I1Cent= 0 IOpClX= 0 NMat=1 NMatS=1 NMatT=0.
 Full mass-weighted force constant matrix:
 Low frequencies ---   -0.4704    0.0033    0.0034    0.0045    4.5635    6.5154
 Low frequencies ---   12.5531   21.4408   29.8382
 Diagonal vibrational polarizability:

                      1                      2                      3
                      A                      A                      A
 Frequencies --     12.4329                21.3312                29.8365
 Red. masses --     19.5836                23.9651                21.6109
 Frc consts  --      0.0018                 0.0064                 0.0113
 IR Inten    --      0.0289                 0.0974                 0.1665

                      4                      5                      6
                      A                      A                      A
 Frequencies --     43.7991                90.3064               100.1867
 Red. masses --     12.4747                11.7507                 9.4293
 Frc consts  --      0.0141                 0.0565                 0.0558
 IR Inten    --      0.0967                 0.9161                 4.6774

                      7                      8                      9
                      A                      A                      A
 Frequencies --    154.5815               187.8062               203.9735
 Red. masses --      6.1101                14.1008                 8.7704
 Frc consts  --      0.0860                 0.2930                 0.2150
 IR Inten    --      0.0702                 2.0576                 0.5517

                     10                     11                     12
                      A                      A                      A
 Frequencies --    241.0072               253.6467               261.6980
 Red. masses --     10.1094                 7.9041                 6.9780
 Frc consts  --      0.3460                 0.2996                 0.2816
 IR Inten    --      1.8182                 0.2532                 0.1046

                     13                     14                     15
                      A                      A                      A
 Frequencies --    268.6053               274.1248               335.2862
 Red. masses --      9.3124                15.4111                11.1383
 Frc consts  --      0.3959                 0.6823                 0.7377
 IR Inten    --      2.0455                 1.7897                 1.3459

                     16                     17                     18
                      A                      A                      A
 Frequencies --    337.2594               352.3788               354.3984
 Red. masses --     10.3790                 2.8322                 2.8580
 Frc consts  --      0.6956                 0.2072                 0.2115
 IR Inten    --      2.6801                 6.1688                 1.8461

                     19                     20                     21
                      A                      A                      A
 Frequencies --    433.8093               437.1292               473.6207
 Red. masses --     16.9813                 6.5418                 1.2718
 Frc consts  --      1.8829                 0.7365                 0.1681
 IR Inten    --      3.8813                 6.7904                67.5294

                     22                     23                     24
                      A                      A                      A
 Frequencies --    581.0537               583.7539               671.0004
 Red. masses --      4.5565                 5.7473                 1.2433
 Frc consts  --      0.9064                 1.1539                 0.3298
 IR Inten    --     24.1118                16.2101               240.8028

                     25                     26                     27
                      A                      A                      A
 Frequencies --    734.4970               741.9598               850.1440
 Red. masses --      4.3097                 3.8364                10.4869
 Frc consts  --      1.3699                 1.2443                 4.4656
 IR Inten    --     59.4243               140.8033               174.9068

                     28                     29                     30
                      A                      A                      A
 Frequencies --    861.7768              1041.9107              1050.2936
 Red. masses --     10.6301                 1.9369                 4.8133
 Frc consts  --      4.6513                 1.2388                 3.1284
 IR Inten    --    122.5778               100.6360                 3.3314

                     31                     32                     33
                      A                      A                      A
 Frequencies --   1065.5588              1077.8706              1183.0675
 Red. masses --      2.1044                 3.7781                 4.8468
 Frc consts  --      1.4078                 2.5862                 3.9969
 IR Inten    --     19.9990                13.5897               142.0916

                     34                     35                     36
                      A                      A                      A
 Frequencies --   1209.1519              1250.1511              1287.9222
 Red. masses --      4.8947                 1.1248                 1.0595
 Frc consts  --      4.2164                 1.0357                 1.0355
 IR Inten    --     76.2376                55.2323                39.6141

                     37                     38                     39
                      A                      A                      A
 Frequencies --   1392.7890              1420.5186              1427.1916
 Red. masses --      1.2214                 1.2698                 1.2636
 Frc consts  --      1.3960                 1.5096                 1.5164
 IR Inten    --     20.4638                17.6831                83.9957

                     40                     41                     42
                      A                      A                      A
 Frequencies --   1477.2876              1490.9495              1495.3264
 Red. masses --      1.1776                 1.1185                 1.0994
 Frc consts  --      1.5141                 1.4649                 1.4484
 IR Inten    --     44.2415                 6.7678                23.0093

                     43                     44                     45
                      A                      A                      A
 Frequencies --   3036.5648              3061.1889              3118.0783
 Red. masses --      1.0631                 1.0664                 1.1066
 Frc consts  --      5.7755                 5.8879                 6.3388
 IR Inten    --     21.5363                23.5039                13.0325

                     46                     47                     48
                      A                      A                      A
 Frequencies --   3159.6247              3619.2931              3691.7336
 Red. masses --      1.1050                 1.0661                 1.0653
 Frc consts  --      6.4997                 8.2280                 8.5545
 IR Inten    --      1.9536               521.7406               210.4761

 Optimization completed.
    -- Stationary point found.
 Normal termination of Gaussian 16 at Sun Feb  5 16:10:04 2023.
