 Gaussian 16, Revision B.01,
 Gaussian 16:  ES64L-G16RevB.01 20-Dec-2017

 --------------------------------------------------------------
 #T wB97XD//def2svpp Volume=tight Geom=AllCheckpoint Guess=Read
 --------------------------------------------------------------
 Structure from the checkpoint file:  "7.chk"
 -----
 Dimer
 -----
 Charge =  0 Multiplicity = 1

                         Standard orientation:
 ---------------------------------------------------------------------
 Center     Atomic      Atomic             Coordinates (Angstroms)
 Number     Number       Type             X           Y           Z
 ---------------------------------------------------------------------
      1          6           0       -2.551957   -0.322472   -0.000000
      2          6           0       -1.279601    0.520965   -0.000000
      3          6           0        0.000000   -0.315012    0.000000
      4          6           0        1.279601    0.520965    0.000000
      5          6           0        2.551957   -0.322472   -0.000000
      6          1           0       -2.597568   -0.973952    0.891053
      7          1           0       -2.597572   -0.973948   -0.891056
      8          1           0       -3.456008    0.310451    0.000003
      9          1           0       -1.277967    1.186783    0.883485
     10          1           0       -1.277967    1.186781   -0.883487
     11          1           0        0.000000   -0.982040   -0.884233
     12          1           0       -0.000000   -0.982039    0.884235
     13          1           0        1.277967    1.186781    0.883486
     14          1           0        1.277966    1.186782   -0.883485
     15          1           0        2.597569   -0.973951   -0.891055
     16          1           0        2.597571   -0.973949    0.891055
     17          1           0        3.456008    0.310451   -0.000002
 ---------------------------------------------------------------------

 SCF Done:  E(RwB97XD) =  -197.545088829     A.U. after    1 cycles

 The electronic state is 1-A.
 Alpha  occ. eigenvalues --  -10.28511 -10.28510 -10.28323 -10.27856 -10.27855
 Alpha  occ. eigenvalues --   -0.89298  -0.84037  -0.76264  -0.68269  -0.65996
 Alpha  occ. eigenvalues --   -0.56249  -0.52405  -0.51644  -0.48971  -0.47666
 Alpha  occ. eigenvalues --   -0.45853  -0.43456  -0.41399  -0.40599  -0.39876
 Alpha  occ. eigenvalues --   -0.39729
 Alpha virt. eigenvalues --    0.13932   0.15574   0.16911   0.17354   0.19808
 Alpha virt. eigenvalues --    0.21820   0.21988   0.23502   0.24043   0.24565
 Alpha virt. eigenvalues --    0.25141   0.26324   0.29441   0.31350   0.33281

 Mulliken charges:
               1
     1  C   -0.310551
     2  C   -0.215066
     3  C   -0.233304
     4  C   -0.215066
     5  C   -0.310551
     6  H    0.112686
     7  H    0.112686
     8  H    0.119697
     9  H    0.100572
    10  H    0.100572
    11  H    0.096055
    12  H    0.096055
    13  H    0.100572
    14  H    0.100572
    15  H    0.112686
    16  H    0.112686
    17  H    0.119697
 Sum of Mulliken charges =   0.00000

 Dipole moment (field-independent basis, Debye):
    X=             -0.0000    Y=              0.0557    Z=             -0.0000  Tot=              0.0557
 Evaluate density.
 Using the total density.
 Monte-Carlo method of calculating molar volume:
 based on  0.001 e/bohr**3 density envelope.
 Number of points per bohr**3 =  100 CutOff= 1.00D-04
 Using the SCF density.
 There are      1628 points.  Will hold      1628 in memory.
 LenV=  1048398901 MDV=  1048576000.
 Box volume = 4317.024 fraction occupied=0.211
 Integrated density= 3.1989489623318875D+01 error=-1.0010510376681125D+01

 Normal termination of Gaussian 16 at Fri Feb  3 12:52:56 2023.
