 Gaussian 16, Revision B.01,
 Gaussian 16:  ES64L-G16RevB.01 20-Dec-2017

 ----------------------------------------------------------------------
 #T wB97XD/def2svpp opt=tight freq int(grid=ultrafine) scf=(verytight,q
 c) Volume=tight
 ----------------------------------------------------------------------
 -----
 Dimer
 -----
 Symbolic Z-matrix:
 Charge =  0 Multiplicity = 1

 SCF Done:  E(RwB97XD) =  -1191.21701335     a.u. after    7 cycles
 SCF Done:  E(RwB97XD) =  -1191.22281875     a.u. after    8 cycles
 SCF Done:  E(RwB97XD) =  -1191.22249091     a.u. after    9 cycles
 SCF Done:  E(RwB97XD) =  -1191.22062353     a.u. after   15 cycles
 SCF Done:  E(RwB97XD) =  -1191.22168514     a.u. after   11 cycles
 SCF Done:  E(RwB97XD) =  -1191.22319958     a.u. after    4 cycles
 SCF Done:  E(RwB97XD) =  -1191.22348876     a.u. after    7 cycles
 SCF Done:  E(RwB97XD) =  -1191.22359499     a.u. after    7 cycles
 SCF Done:  E(RwB97XD) =  -1191.22361866     a.u. after    5 cycles
 SCF Done:  E(RwB97XD) =  -1191.22365165     a.u. after    4 cycles
 SCF Done:  E(RwB97XD) =  -1191.22373664     a.u. after    2 cycles
 SCF Done:  E(RwB97XD) =  -1191.22373665     a.u. after    2 cycles
 SCF Done:  E(RwB97XD) =  -1191.22373665     a.u. after    2 cycles
 SCF Done:  E(RwB97XD) =  -1191.22373665     a.u. after    2 cycles
 SCF Done:  E(RwB97XD) =  -1191.22373665     a.u. after    2 cycles
 SCF Done:  E(RwB97XD) =  -1191.22373665     a.u. after    2 cycles
 SCF Done:  E(RwB97XD) =  -1191.22373665     a.u. after    2 cycles
 SCF Done:  E(RwB97XD) =  -1191.22373665     a.u. after    2 cycles
 SCF Done:  E(RwB97XD) =  -1191.22373665     a.u. after    2 cycles
 Optimization completed.
    -- Stationary point found.
 Normal termination of Gaussian 16 at Fri Feb  3 14:17:58 2023.

 ---------------------------------------------------------------------
 #T Geom=AllCheck Guess=TCheck SCRF=Check GenChk RwB97XD/def2SVPP Freq
 ---------------------------------------------------------------------
 Structure from the checkpoint file:  "33.chk"
 -----
 Dimer
 -----
 Charge =  0 Multiplicity = 1

                         Standard orientation:
 ---------------------------------------------------------------------
 Center     Atomic      Atomic             Coordinates (Angstroms)
 Number     Number       Type             X           Y           Z
 ---------------------------------------------------------------------
      1          6           0       -1.844363    2.159010    0.609016
      2          6           0       -1.907553    1.156928   -0.538886
      3          6           0       -2.591405   -0.191469   -0.237512
      4          6           0       -4.000527    0.004579    0.331441
      5          6           0       -2.655701   -1.023558   -1.521689
      6         16           0       -1.655126   -1.139789    1.051915
      7          1           0       -2.845738    2.535270    0.880191
      8          1           0       -1.231550    3.031271    0.324246
      9          1           0       -1.397918    1.702673    1.508950
     10          1           0       -0.886569    0.946028   -0.905020
     11          1           0       -2.445181    1.616564   -1.391255
     12          1           0       -4.598639    0.625614   -0.360239
     13          1           0       -3.983876    0.507230    1.313185
     14          1           0       -4.512807   -0.964815    0.454766
     15          1           0       -3.273346   -0.506039   -2.279452
     16          1           0       -3.098417   -2.015086   -1.329354
     17          1           0       -1.648326   -1.171670   -1.948499
     18          1           0       -0.547592   -1.358511    0.296985
     19          6           0        1.825613    2.158347   -0.634898
     20          6           0        1.828994    1.153663    0.514413
     21          6           0        2.568512   -0.177389    0.272907
     22          6           0        4.038528    0.040026   -0.094844
     23          6           0        2.458817   -1.040347    1.532994
     24         16           0        1.698239   -1.017773   -1.138515
     25          1           0        1.392428    1.729413   -1.555049
     26          1           0        2.841549    2.514012   -0.876385
     27          1           0        1.222176    3.040186   -0.361518
     28          1           0        0.789727    0.917598    0.804302
     29          1           0        2.294653    1.620858    1.402641
     30          1           0        4.147148    0.595972   -1.039624
     31          1           0        4.561227   -0.925543   -0.211154
     32          1           0        4.549177    0.606685    0.706155
     33          1           0        2.983387   -0.545329    2.370931
     34          1           0        2.922379   -2.031730    1.386408
     35          1           0        1.406686   -1.185727    1.828650
     36          1           0        2.344148   -2.202678   -1.031912
 ---------------------------------------------------------------------

 SCF Done:  E(RwB97XD) =  -1191.22373665     a.u. after    1 cycles

 The electronic state is 1-A.
 Alpha  occ. eigenvalues --  -89.00243 -88.98069 -10.34535 -10.33277 -10.29847
 Alpha  occ. eigenvalues --  -10.29198 -10.29149 -10.28946 -10.28586 -10.28453
 Alpha  occ. eigenvalues --  -10.28070 -10.27683  -8.05484  -8.03362  -6.00940
 Alpha  occ. eigenvalues --   -6.00565  -5.99899  -5.98802  -5.98442  -5.97791
 Alpha  occ. eigenvalues --   -0.93791  -0.92569  -0.83976  -0.82873  -0.80367
 Alpha  occ. eigenvalues --   -0.78807  -0.78431  -0.77650  -0.72192  -0.71080
 Alpha  occ. eigenvalues --   -0.62869  -0.61818  -0.56509  -0.55404  -0.54563
 Alpha  occ. eigenvalues --   -0.54021  -0.52898  -0.52184  -0.51102  -0.50178
 Alpha  occ. eigenvalues --   -0.48597  -0.48070  -0.47520  -0.46808  -0.46342
 Alpha  occ. eigenvalues --   -0.45135  -0.44327  -0.43758  -0.43555  -0.42996
 Alpha  occ. eigenvalues --   -0.41734  -0.41161  -0.40994  -0.40329  -0.38708
 Alpha  occ. eigenvalues --   -0.37448  -0.31713  -0.30151
 Alpha virt. eigenvalues --    0.08921   0.11406   0.12593   0.13569   0.14601
 Alpha virt. eigenvalues --    0.14965   0.16755   0.17450   0.18408   0.19023
 Alpha virt. eigenvalues --    0.19522   0.20032   0.20212   0.20951   0.21457

 Mulliken charges:
               1
     1  C   -0.332124
     2  C   -0.154311
     3  C   -0.352712
     4  C   -0.262669
     5  C   -0.232828
     6  S   -0.198223
     7  H    0.119114
     8  H    0.123181
     9  H    0.140414
    10  H    0.110531
    11  H    0.099863
    12  H    0.119016
    13  H    0.135409
    14  H    0.129692
    15  H    0.110480
    16  H    0.125873
    17  H    0.124296
    18  H    0.176404
    19  C   -0.330741
    20  C   -0.198859
    21  C   -0.346456
    22  C   -0.235051
    23  C   -0.236448
    24  S   -0.158123
    25  H    0.140262
    26  H    0.123251
    27  H    0.131766
    28  H    0.129849
    29  H    0.110055
    30  H    0.136310
    31  H    0.114754
    32  H    0.116500
    33  H    0.117850
    34  H    0.115876
    35  H    0.133999
    36  H    0.153798
 Sum of Mulliken charges =  -0.00000

 Dipole moment (field-independent basis, Debye):
    X=              1.4995    Y=              0.6994    Z=             -0.3776  Tot=              1.6972
  Exact polarizability: 160.537  -2.470 136.685   6.091   1.134 128.200
 Approx polarizability: 156.495  -3.899 150.432   5.341   0.750 151.641
   1 Symmetry operations used in ECPInt.
 ECPInt:  NShTT=    7750 NPrTT=   32126 LenC2=    7510 LenP2D=   22123.
 LDataN:  DoStor=T MaxTD1= 6 Len=  172
 Calling FoFJK, ICntrl=    100127 FMM=F ISym2X=0 I1Cent= 0 IOpClX= 0 NMat=1 NMatS=1 NMatT=0.
 Full mass-weighted force constant matrix:
 Low frequencies ---   -6.9858   -0.0032   -0.0012    0.0027    5.6194    7.0505
 Low frequencies ---   23.7899   40.5953   46.3555
 Diagonal vibrational polarizability:

                      1                      2                      3
                      A                      A                      A
 Frequencies --     23.5812                40.5285                46.3011
 Red. masses --      3.6302                 3.5336                 3.9487
 Frc consts  --      0.0012                 0.0034                 0.0050
 IR Inten    --      0.8350                 1.8302                 0.1202

                      4                      5                      6
                      A                      A                      A
 Frequencies --     65.4614                78.1219                85.6955
 Red. masses --      4.5885                 3.6758                 5.6079
 Frc consts  --      0.0116                 0.0132                 0.0243
 IR Inten    --      0.4053                 0.0906                 1.0550

                      7                      8                      9
                      A                      A                      A
 Frequencies --    120.8127               142.7452               212.8676
 Red. masses --      1.8430                 1.8437                 1.6350
 Frc consts  --      0.0158                 0.0221                 0.0437
 IR Inten    --      0.0910                 0.1450                 0.1086

                     10                     11                     12
                      A                      A                      A
 Frequencies --    221.5697               241.6643               247.2961
 Red. masses --      1.7289                 1.2298                 1.3642
 Frc consts  --      0.0500                 0.0423                 0.0492
 IR Inten    --      0.4840                 6.1860                 1.1438

                     13                     14                     15
                      A                      A                      A
 Frequencies --    263.2137               279.3607               288.4111
 Red. masses --      1.1545                 1.2120                 1.2520
 Frc consts  --      0.0471                 0.0557                 0.0614
 IR Inten    --      3.9672                 0.5206                 0.8691

                     16                     17                     18
                      A                      A                      A
 Frequencies --    306.8215               311.9265               316.8380
 Red. masses --      1.6507                 1.5774                 1.5470
 Frc consts  --      0.0916                 0.0904                 0.0915
 IR Inten    --      0.5311                 0.5648                 0.3422

                     19                     20                     21
                      A                      A                      A
 Frequencies --    325.6028               336.3394               342.3463
 Red. masses --      1.7531                 2.1523                 2.1683
 Frc consts  --      0.1095                 0.1435                 0.1497
 IR Inten    --      0.0874                 0.7428                 0.2695

                     22                     23                     24
                      A                      A                      A
 Frequencies --    381.8853               385.8342               388.3816
 Red. masses --      2.2426                 2.7654                 1.2473
 Frc consts  --      0.1927                 0.2426                 0.1109
 IR Inten    --      8.6125                 0.2668                25.2306

                     25                     26                     27
                      A                      A                      A
 Frequencies --    407.9320               409.0858               488.2412
 Red. masses --      2.2801                 2.1537                 2.6628
 Frc consts  --      0.2236                 0.2124                 0.3740
 IR Inten    --      0.8891                 2.2257                 0.6797

                     28                     29                     30
                      A                      A                      A
 Frequencies --    499.0341               590.5661               595.7551
 Red. masses --      2.7719                 3.3608                 3.4244
 Frc consts  --      0.4067                 0.6906                 0.7161
 IR Inten    --      0.1943                 4.5552                 2.8565

                     31                     32                     33
                      A                      A                      A
 Frequencies --    789.4713               797.9726               830.7746
 Red. masses --      1.3969                 1.3754                 1.8064
 Frc consts  --      0.5130                 0.5160                 0.7346
 IR Inten    --      3.9410                 3.1016                 6.3798

                     34                     35                     36
                      A                      A                      A
 Frequencies --    835.0085               892.7683               925.9465
 Red. masses --      1.6918                 1.2957                 1.3126
 Frc consts  --      0.6950                 0.6084                 0.6630
 IR Inten    --      6.9293                 4.4635                 3.2222

                     37                     38                     39
                      A                      A                      A
 Frequencies --    955.9969               961.1972               963.1513
 Red. masses --      1.5710                 1.4983                 1.4765
 Frc consts  --      0.8459                 0.8156                 0.8070
 IR Inten    --      1.1591                 0.9058                 3.7414

                     40                     41                     42
                      A                      A                      A
 Frequencies --    968.7369              1021.5560              1024.6089
 Red. masses --      1.3893                 1.2725                 1.2610
 Frc consts  --      0.7682                 0.7824                 0.7800
 IR Inten    --      0.5300                 1.8464                 3.1502

                     43                     44                     45
                      A                      A                      A
 Frequencies --   1040.1197              1041.6513              1089.3402
 Red. masses --      1.4968                 1.4965                 1.4612
 Frc consts  --      0.9540                 0.9567                 1.0216
 IR Inten    --      2.3409                 4.9425                 9.4498

                     46                     47                     48
                      A                      A                      A
 Frequencies --   1091.9717              1101.3426              1105.6940
 Red. masses --      1.5392                 1.9377                 2.1088
 Frc consts  --      1.0813                 1.3848                 1.5190
 IR Inten    --      0.2124                 1.8986                 0.9909

                     49                     50                     51
                      A                      A                      A
 Frequencies --   1201.4248              1204.5835              1226.2814
 Red. masses --      2.1084                 2.0947                 2.5220
 Frc consts  --      1.7931                 1.7908                 2.2345
 IR Inten    --     20.3838                22.0707                 1.0452

                     52                     53                     54
                      A                      A                      A
 Frequencies --   1227.0084              1269.1274              1270.0989
 Red. masses --      2.3158                 2.3407                 2.3269
 Frc consts  --      2.0542                 2.2213                 2.2116
 IR Inten    --      7.9359                 1.1074                 1.8388

                     55                     56                     57
                      A                      A                      A
 Frequencies --   1329.2915              1336.0320              1384.5724
 Red. masses --      1.2589                 1.2372                 1.3969
 Frc consts  --      1.3106                 1.3011                 1.5778
 IR Inten    --      5.9900                 3.4909                 1.8806

                     58                     59                     60
                      A                      A                      A
 Frequencies --   1390.6221              1410.2815              1412.7756
 Red. masses --      1.4174                 1.3118                 1.3059
 Frc consts  --      1.6150                 1.5372                 1.5357
 IR Inten    --      1.1395                11.4743                10.8718

                     61                     62                     63
                      A                      A                      A
 Frequencies --   1424.6285              1428.3050              1431.0093
 Red. masses --      1.2599                 1.2563                 1.3413
 Frc consts  --      1.5066                 1.5101                 1.6183
 IR Inten    --      5.4454                 3.3175                 9.5071

                     64                     65                     66
                      A                      A                      A
 Frequencies --   1433.5833              1470.8373              1475.6033
 Red. masses --      1.3097                 1.0762                 1.0632
 Frc consts  --      1.5859                 1.3717                 1.3640
 IR Inten    --     10.1158                 0.6956                 1.7489

                     67                     68                     69
                      A                      A                      A
 Frequencies --   1477.7886              1480.9524              1484.0933
 Red. masses --      1.0444                 1.0442                 1.0626
 Frc consts  --      1.3438                 1.3494                 1.3790
 IR Inten    --      0.7643                 0.6463                 9.0315

                     70                     71                     72
                      A                      A                      A
 Frequencies --   1489.7177              1493.1842              1493.8738
 Red. masses --      1.0586                 1.0558                 1.0463
 Frc consts  --      1.3841                 1.3870                 1.3757
 IR Inten    --      2.7081                 2.9969                22.6831

                     73                     74                     75
                      A                      A                      A
 Frequencies --   1496.5777              1497.3071              1499.0942
 Red. masses --      1.0618                 1.0507                 1.0478
 Frc consts  --      1.4012                 1.3879                 1.3873
 IR Inten    --      4.7776                 8.0041                15.1811

                     76                     77                     78
                      A                      A                      A
 Frequencies --   1504.3888              1509.0910              1515.9331
 Red. masses --      1.0626                 1.0514                 1.0499
 Frc consts  --      1.4169                 1.4108                 1.4216
 IR Inten    --     16.9894                 3.0717                 0.3638

                     79                     80                     81
                      A                      A                      A
 Frequencies --   2630.3139              2685.1173              3022.3968
 Red. masses --      1.0383                 1.0384                 1.0432
 Frc consts  --      4.2323                 4.4111                 5.6147
 IR Inten    --     49.9929                 6.7432                 7.5267

                     82                     83                     84
                      A                      A                      A
 Frequencies --   3025.8893              3027.8129              3029.2499
 Red. masses --      1.0390                 1.0586                 1.0403
 Frc consts  --      5.6048                 5.7180                 5.6245
 IR Inten    --     13.5337                36.2119                27.4457

                     85                     86                     87
                      A                      A                      A
 Frequencies --   3032.3918              3039.0323              3039.4160
 Red. masses --      1.0407                 1.0590                 1.0442
 Frc consts  --      5.6381                 5.7623                 5.6837
 IR Inten    --     27.7735                32.5306                 9.4895

                     88                     89                     90
                      A                      A                      A
 Frequencies --   3042.1618              3090.2009              3099.1244
 Red. masses --      1.0383                 1.0992                 1.1013
 Frc consts  --      5.6615                 6.1845                 6.2323
 IR Inten    --     16.9207                 9.1909                 1.4471

                     91                     92                     93
                      A                      A                      A
 Frequencies --   3112.5831              3114.0164              3116.9980
 Red. masses --      1.1040                 1.1030                 1.1032
 Frc consts  --      6.3018                 6.3019                 6.3151
 IR Inten    --      0.6020                15.3664                32.2065

                     94                     95                     96
                      A                      A                      A
 Frequencies --   3123.1781              3128.0350              3134.6380
 Red. masses --      1.1036                 1.1043                 1.1046
 Frc consts  --      6.3422                 6.3664                 6.3948
 IR Inten    --     17.0083                37.8284                11.4628

                     97                     98                     99
                      A                      A                      A
 Frequencies --   3134.9995              3136.2759              3136.5947
 Red. masses --      1.1047                 1.1053                 1.1043
 Frc consts  --      6.3971                 6.4059                 6.4010
 IR Inten    --     24.5199                10.6312                15.6764

                    100                    101                    102
                      A                      A                      A
 Frequencies --   3138.2826              3142.9540              3146.3245
 Red. masses --      1.1046                 1.1045                 1.1035
 Frc consts  --      6.4100                 6.4284                 6.4359
 IR Inten    --     20.6803                12.6146                10.0320

                           ! Non-Optimized Parameters !
 Normal termination of Gaussian 16 at Fri Feb  3 14:25:48 2023.
