 Gaussian 16, Revision B.01,
 Gaussian 16:  ES64L-G16RevB.01 20-Dec-2017

 --------------------------------------------------------------
 #T wB97XD//def2svpp Volume=tight Geom=AllCheckpoint Guess=Read
 --------------------------------------------------------------
 Structure from the checkpoint file:  "35.chk"
 -------
 Monomer
 -------
 Charge =  0 Multiplicity = 1

                         Standard orientation:
 ---------------------------------------------------------------------
 Center     Atomic      Atomic             Coordinates (Angstroms)
 Number     Number       Type             X           Y           Z
 ---------------------------------------------------------------------
      1          6           0        0.000000    0.000000    0.000000
      2         17           0        1.025781    1.025781    1.025781
      3         17           0       -1.025781   -1.025781    1.025781
      4         17           0       -1.025781    1.025781   -1.025781
      5         17           0        1.025781   -1.025781   -1.025781
 ---------------------------------------------------------------------

 SCF Done:  E(RwB97XD) =  -1878.24201232     A.U. after    1 cycles

 The electronic state is 1-A1.
 Alpha  occ. eigenvalues -- -101.71040-101.71040-101.71040-101.71033 -10.52994
 Alpha  occ. eigenvalues --   -9.61912  -9.61912  -9.61912  -9.61906  -7.37379
 Alpha  occ. eigenvalues --   -7.37379  -7.37379  -7.37376  -7.36248  -7.36248
 Alpha  occ. eigenvalues --   -7.36248  -7.36246  -7.36246  -7.36246  -7.36246
 Alpha  occ. eigenvalues --   -7.36246  -1.08397  -0.95353  -0.95353  -0.95353
 Alpha  occ. eigenvalues --   -0.71907  -0.59098  -0.59098  -0.59098  -0.46082
 Alpha  occ. eigenvalues --   -0.46082  -0.43169  -0.43169  -0.43169  -0.39897
 Alpha  occ. eigenvalues --   -0.39897  -0.39897
 Alpha virt. eigenvalues --    0.03353   0.07664   0.07664   0.07664   0.42564
 Alpha virt. eigenvalues --    0.47731   0.47731   0.47731   0.59513   0.59513
 Alpha virt. eigenvalues --    0.59513   0.69681   0.69681   0.79667   0.79667

 Mulliken charges:
               1
     1  C    0.026983
     2  Cl  -0.006746
     3  Cl  -0.006746
     4  Cl  -0.006746
     5  Cl  -0.006746
 Sum of Mulliken charges =  -0.00000

 Dipole moment (field-independent basis, Debye):
    X=              0.0000    Y=              0.0000    Z=             -0.0000  Tot=              0.0000
 Evaluate density.
 Using the total density.
 Monte-Carlo method of calculating molar volume:
 based on  0.001 e/bohr**3 density envelope.
 Number of points per bohr**3 =  100 CutOff= 1.00D-04
 Using the SCF density.
 There are      2015 points.  Will hold      2015 in memory.
 LenV=  1048376648 MDV=  1048576000.
 Box volume = 8192.041 fraction occupied=0.096
 Integrated density= 4.6149527568025945D+01 error=-2.7850472431974055D+01

 Normal termination of Gaussian 16 at Wed Sep 28 21:36:21 2022.
