 Gaussian 16, Revision B.01,
 Gaussian 16:  ES64L-G16RevB.01 20-Dec-2017

 ----------------------------------------------------------------------
 #T wB97XD/def2svpp opt=tight freq int(grid=ultrafine) scf=(verytight,q
 c) Volume=tight
 ----------------------------------------------------------------------
 -----
 Dimer
 -----
 Symbolic Z-matrix:
 Charge =  0 Multiplicity = 1

 SCF Done:  E(RwB97XD) =  -623.906937719     a.u. after    7 cycles
 SCF Done:  E(RwB97XD) =  -623.911814659     a.u. after   13 cycles
 SCF Done:  E(RwB97XD) =  -623.907343762     a.u. after   13 cycles
 SCF Done:  E(RwB97XD) =  -623.911544492     a.u. after   13 cycles
 SCF Done:  E(RwB97XD) =  -623.912220297     a.u. after    4 cycles
 SCF Done:  E(RwB97XD) =  -623.912533645     a.u. after   11 cycles
 SCF Done:  E(RwB97XD) =  -623.912580186     a.u. after    9 cycles
 SCF Done:  E(RwB97XD) =  -623.912775567     a.u. after    7 cycles
 SCF Done:  E(RwB97XD) =  -623.912867533     a.u. after    9 cycles
 SCF Done:  E(RwB97XD) =  -623.912896026     a.u. after    8 cycles
 SCF Done:  E(RwB97XD) =  -623.912989513     a.u. after    2 cycles
 SCF Done:  E(RwB97XD) =  -623.912989527     a.u. after    2 cycles
 SCF Done:  E(RwB97XD) =  -623.912989579     a.u. after    2 cycles
 SCF Done:  E(RwB97XD) =  -623.912989597     a.u. after    2 cycles
 SCF Done:  E(RwB97XD) =  -623.912989603     a.u. after    2 cycles
 SCF Done:  E(RwB97XD) =  -623.912989621     a.u. after    2 cycles
 SCF Done:  E(RwB97XD) =  -623.912989616     a.u. after    2 cycles
 SCF Done:  E(RwB97XD) =  -623.912989662     a.u. after    2 cycles
 SCF Done:  E(RwB97XD) =  -623.912989616     a.u. after    2 cycles
 Optimization completed.
    -- Stationary point found.
 Normal termination of Gaussian 16 at Sun Feb  5 17:15:29 2023.

 ---------------------------------------------------------------------
 #T Geom=AllCheck Guess=TCheck SCRF=Check GenChk RwB97XD/def2SVPP Freq
 ---------------------------------------------------------------------
 Structure from the checkpoint file:  "17.chk"
 -----
 Dimer
 -----
 Charge =  0 Multiplicity = 1

                         Standard orientation:
 ---------------------------------------------------------------------
 Center     Atomic      Atomic             Coordinates (Angstroms)
 Number     Number       Type             X           Y           Z
 ---------------------------------------------------------------------
      1          6           0       -1.427924   -0.517124    1.671097
      2          6           0       -2.223449    0.467430    0.812712
      3          8           0       -1.358931    1.380642    0.180510
      4          6           0       -3.205688   -0.188652   -0.202916
      5          6           0       -2.445887   -0.960118   -1.291294
      6          6           0       -4.165439   -1.140650    0.524518
      7          6           0       -4.019130    0.934860   -0.861954
      8          1           0       -2.080512   -1.156646    2.287591
      9          1           0       -0.771322    0.051778    2.351114
     10          1           0       -0.790776   -1.171660    1.049719
     11          1           0       -2.843274    1.079586    1.493906
     12          1           0       -0.653577    0.885590   -0.281135
     13          1           0       -3.156661   -1.417188   -2.003001
     14          1           0       -1.827852   -1.772697   -0.871087
     15          1           0       -1.781534   -0.293661   -1.866989
     16          1           0       -4.969912   -1.470891   -0.156861
     17          1           0       -4.643687   -0.643661    1.388922
     18          1           0       -3.653368   -2.046823    0.892093
     19          1           0       -4.636967    1.465545   -0.114673
     20          1           0       -4.696915    0.529706   -1.635046
     21          1           0       -3.349011    1.673314   -1.330706
     22          6           0        2.023593    1.934599    0.352608
     23          6           0        1.852039    0.431485    0.165381
     24          8           0        0.911635    0.180312   -0.877518
     25          6           0        3.148191   -0.395165   -0.044835
     26          6           0        3.851563   -0.010122   -1.354619
     27          6           0        4.103377   -0.165144    1.134928
     28          6           0        2.762506   -1.881334   -0.095423
     29          1           0        2.477737    2.408214   -0.537041
     30          1           0        2.656521    2.168943    1.223078
     31          1           0        1.030358    2.383285    0.519426
     32          1           0        1.358610    0.030696    1.066337
     33          1           0        1.198783    0.640927   -1.679044
     34          1           0        4.150918    1.052704   -1.368552
     35          1           0        3.212473   -0.205328   -2.234746
     36          1           0        4.768442   -0.610829   -1.486649
     37          1           0        4.954510   -0.866515    1.080036
     38          1           0        3.593256   -0.333659    2.100946
     39          1           0        4.518114    0.857418    1.141135
     40          1           0        3.654060   -2.511517   -0.262457
     41          1           0        2.041345   -2.074789   -0.905899
     42          1           0        2.296100   -2.199866    0.854436
 ---------------------------------------------------------------------

 SCF Done:  E(RwB97XD) =  -623.912989616     a.u. after    1 cycles

 The electronic state is 1-A.
 Alpha  occ. eigenvalues --  -19.27478 -19.21843 -10.35112 -10.32410 -10.31418
 Alpha  occ. eigenvalues --  -10.29169 -10.29167 -10.28860 -10.28662 -10.28093
 Alpha  occ. eigenvalues --  -10.27230 -10.27206 -10.26908 -10.26256  -1.13439
 Alpha  occ. eigenvalues --   -1.08530  -0.92139  -0.89819  -0.83444  -0.81201
 Alpha  occ. eigenvalues --   -0.78417  -0.77755  -0.76310  -0.75881  -0.72835
 Alpha  occ. eigenvalues --   -0.70399  -0.64994  -0.62067  -0.58266  -0.56977
 Alpha  occ. eigenvalues --   -0.55672  -0.55235  -0.54052  -0.53417  -0.52761
 Alpha  occ. eigenvalues --   -0.52174  -0.51044  -0.50252  -0.48515  -0.47540
 Alpha  occ. eigenvalues --   -0.47100  -0.46867  -0.46417  -0.45594  -0.45232
 Alpha  occ. eigenvalues --   -0.45013  -0.44424  -0.43885  -0.43044  -0.42430
 Alpha  occ. eigenvalues --   -0.41659  -0.41373  -0.40100  -0.39757  -0.39350
 Alpha  occ. eigenvalues --   -0.37476  -0.36119  -0.32638
 Alpha virt. eigenvalues --    0.11089   0.13769   0.13944   0.15688   0.16718
 Alpha virt. eigenvalues --    0.17624   0.17878   0.18507   0.18746   0.19581
 Alpha virt. eigenvalues --    0.20252   0.20418   0.20854   0.21414   0.21561

 Mulliken charges:
               1
     1  C   -0.340563
     2  C    0.095222
     3  O   -0.524997
     4  C   -0.238678
     5  C   -0.298007
     6  C   -0.283797
     7  C   -0.256939
     8  H    0.119848
     9  H    0.131506
    10  H    0.128413
    11  H    0.072136
    12  H    0.348961
    13  H    0.109784
    14  H    0.118162
    15  H    0.111176
    16  H    0.111427
    17  H    0.111426
    18  H    0.116833
    19  H    0.102795
    20  H    0.104640
    21  H    0.125214
    22  C   -0.324242
    23  C    0.057957
    24  O   -0.505057
    25  C   -0.226948
    26  C   -0.312885
    27  C   -0.285450
    28  C   -0.262719
    29  H    0.109352
    30  H    0.127994
    31  H    0.154559
    32  H    0.097889
    33  H    0.333938
    34  H    0.123256
    35  H    0.108831
    36  H    0.123614
    37  H    0.119020
    38  H    0.118558
    39  H    0.123232
    40  H    0.113721
    41  H    0.128242
    42  H    0.112578
 Sum of Mulliken charges =  -0.00000

 Dipole moment (field-independent basis, Debye):
    X=              2.6403    Y=             -0.6535    Z=             -0.4134  Tot=              2.7512
  Exact polarizability: 153.786  -0.290 128.836   0.395  -0.325 129.149
 Approx polarizability: 144.908   0.486 139.895  -1.343  -0.314 142.565
   1 Symmetry operations used in ECPInt.
 ECPInt:  NShTT=    9870 NPrTT=   39606 LenC2=    9401 LenP2D=   26833.
 LDataN:  DoStor=T MaxTD1= 6 Len=  172
 Calling FoFJK, ICntrl=    100127 FMM=F ISym2X=0 I1Cent= 0 IOpClX= 0 NMat=1 NMatS=1 NMatT=0.
 Full mass-weighted force constant matrix:
 Low frequencies ---   -0.0002    0.0006    0.0009    4.6713    6.4558   12.0562
 Low frequencies ---   16.1177   24.4463   37.1741
 Diagonal vibrational polarizability:

                      1                      2                      3
                      A                      A                      A
 Frequencies --     16.0910                24.4117                37.0235
 Red. masses --      2.8744                 3.4189                 3.0831
 Frc consts  --      0.0004                 0.0012                 0.0025
 IR Inten    --      0.6139                 0.3926                 0.4754

                      4                      5                      6
                      A                      A                      A
 Frequencies --     40.7270                61.0143                78.2972
 Red. masses --      2.9157                 3.5105                 3.0228
 Frc consts  --      0.0028                 0.0077                 0.0109
 IR Inten    --      0.3791                 1.5642                 2.5844

                      7                      8                      9
                      A                      A                      A
 Frequencies --    105.0156               163.4983               223.0797
 Red. masses --      3.3662                 3.1891                 1.0848
 Frc consts  --      0.0219                 0.0502                 0.0318
 IR Inten    --      5.3317                 0.5535                 0.9230

                     10                     11                     12
                      A                      A                      A
 Frequencies --    225.1639               260.1265               264.9101
 Red. masses --      1.0772                 1.7013                 1.6732
 Frc consts  --      0.0322                 0.0678                 0.0692
 IR Inten    --      0.3069                 1.7951                 6.9809

                     13                     14                     15
                      A                      A                      A
 Frequencies --    271.4303               273.9613               276.5571
 Red. masses --      1.2444                 1.0546                 1.0589
 Frc consts  --      0.0540                 0.0466                 0.0477
 IR Inten    --      0.1677                 0.2662                 2.2882

                     16                     17                     18
                      A                      A                      A
 Frequencies --    284.3276               291.1560               297.7575
 Red. masses --      1.4775                 1.6957                 1.7039
 Frc consts  --      0.0704                 0.0847                 0.0890
 IR Inten    --      0.0273                 1.4178                 1.4605

                     19                     20                     21
                      A                      A                      A
 Frequencies --    318.8768               324.8007               360.4505
 Red. masses --      1.8148                 1.6414                 1.9527
 Frc consts  --      0.1087                 0.1020                 0.1495
 IR Inten    --      3.9804                 0.7488                18.0312

                     22                     23                     24
                      A                      A                      A
 Frequencies --    365.9033               383.8450               388.0199
 Red. masses --      2.2960                 2.0692                 2.3047
 Frc consts  --      0.1811                 0.1796                 0.2044
 IR Inten    --      5.4348                 1.6346                 1.6245

                     25                     26                     27
                      A                      A                      A
 Frequencies --    390.5053               396.7964               406.3465
 Red. masses --      1.4566                 2.2311                 1.8791
 Frc consts  --      0.1309                 0.2070                 0.1828
 IR Inten    --     41.4785                 1.0026                20.0203

                     28                     29                     30
                      A                      A                      A
 Frequencies --    461.1952               464.7206               502.2910
 Red. masses --      2.3451                 2.3862                 3.0324
 Frc consts  --      0.2939                 0.3036                 0.4508
 IR Inten    --      1.1524                 3.9307                 3.3300

                     31                     32                     33
                      A                      A                      A
 Frequencies --    518.8129               570.2547               583.2419
 Red. masses --      3.0041                 2.4813                 2.5608
 Frc consts  --      0.4764                 0.4754                 0.5132
 IR Inten    --     30.2641                 1.0999                 0.8149

                     34                     35                     36
                      A                      A                      A
 Frequencies --    728.4511               730.6854               778.4247
 Red. masses --      2.4034                 2.7905                 1.1254
 Frc consts  --      0.7514                 0.8778                 0.4018
 IR Inten    --     14.2749                 1.6994               174.1670

                     37                     38                     39
                      A                      A                      A
 Frequencies --    871.8626               874.7679               952.6026
 Red. masses --      2.0913                 2.1128                 1.7172
 Frc consts  --      0.9366                 0.9526                 0.9181
 IR Inten    --      0.3168                 5.2446                10.8459

                     40                     41                     42
                      A                      A                      A
 Frequencies --    954.0235               956.8235               957.1303
 Red. masses --      1.6225                 1.6714                 1.7204
 Frc consts  --      0.8701                 0.9015                 0.9286
 IR Inten    --      3.3331                 6.7736                 4.3977

                     43                     44                     45
                      A                      A                      A
 Frequencies --    960.5231               961.0059               970.3595
 Red. masses --      1.4613                 1.4793                 1.2987
 Frc consts  --      0.7943                 0.8049                 0.7205
 IR Inten    --      0.6863                 0.6675                 0.3317

                     46                     47                     48
                      A                      A                      A
 Frequencies --    973.0003              1019.3503              1019.8721
 Red. masses --      1.2597                 1.3252                 1.3291
 Frc consts  --      0.7027                 0.8113                 0.8145
 IR Inten    --      0.1760                 0.6177                 6.6947

                     49                     50                     51
                      A                      A                      A
 Frequencies --   1044.0748              1046.5018              1079.2748
 Red. masses --      1.4812                 1.4586                 1.4690
 Frc consts  --      0.9513                 0.9412                 1.0082
 IR Inten    --      1.7928                 1.8945                35.8568

                     52                     53                     54
                      A                      A                      A
 Frequencies --   1086.8212              1115.7545              1127.6084
 Red. masses --      1.4830                 1.7517                 2.0552
 Frc consts  --      1.0321                 1.2848                 1.5397
 IR Inten    --     11.4204                81.7585                11.9523

                     55                     56                     57
                      A                      A                      A
 Frequencies --   1149.6066              1180.8709              1240.9152
 Red. masses --      2.6275                 2.8510                 1.9776
 Frc consts  --      2.0459                 2.3423                 1.7942
 IR Inten    --    127.5603               101.8405                 7.5584

                     58                     59                     60
                      A                      A                      A
 Frequencies --   1250.2493              1273.1046              1273.3218
 Red. masses --      2.1461                 2.5458                 2.5417
 Frc consts  --      1.9765                 2.4311                 2.4280
 IR Inten    --      4.6276                 1.4183                 0.1123

                     61                     62                     63
                      A                      A                      A
 Frequencies --   1302.6762              1305.5451              1311.2566
 Red. masses --      2.7266                 2.0781                 2.0554
 Frc consts  --      2.7261                 2.0869                 2.0822
 IR Inten    --      1.9043                 5.5083                14.8120

                     64                     65                     66
                      A                      A                      A
 Frequencies --   1365.6235              1382.4661              1383.7343
 Red. masses --      1.3089                 1.3092                 1.3261
 Frc consts  --      1.4383                 1.4742                 1.4960
 IR Inten    --      2.6026                 0.5621                 0.5889

                     67                     68                     69
                      A                      A                      A
 Frequencies --   1405.6061              1409.7130              1410.2787
 Red. masses --      1.3265                 1.3130                 1.3423
 Frc consts  --      1.5441                 1.5374                 1.5730
 IR Inten    --     10.8074                 9.4710                 8.3851

                     70                     71                     72
                      A                      A                      A
 Frequencies --   1411.2470              1419.6733              1422.7144
 Red. masses --      1.3335                 1.3255                 1.2771
 Frc consts  --      1.5648                 1.5740                 1.5231
 IR Inten    --     15.0123                17.9810                11.0383

                     73                     74                     75
                      A                      A                      A
 Frequencies --   1434.0973              1435.5522              1444.5641
 Red. masses --      1.2586                 1.2469                 1.2365
 Frc consts  --      1.5250                 1.5140                 1.5203
 IR Inten    --      2.3936                13.3077                57.0516

                     76                     77                     78
                      A                      A                      A
 Frequencies --   1468.9077              1473.2344              1476.3156
 Red. masses --      1.1018                 1.0603                 1.0589
 Frc consts  --      1.4007                 1.3559                 1.3598
 IR Inten    --     18.8245                11.0685                 7.4412

                     79                     80                     81
                      A                      A                      A
 Frequencies --   1479.7934              1481.1667              1485.2842
 Red. masses --      1.0526                 1.0450                 1.0447
 Frc consts  --      1.3580                 1.3508                 1.3579
 IR Inten    --      1.3811                 0.1193                 1.4667

                     82                     83                     84
                      A                      A                      A
 Frequencies --   1486.6152              1490.7947              1496.6683
 Red. masses --      1.0526                 1.0632                 1.0607
 Frc consts  --      1.3706                 1.3922                 1.3999
 IR Inten    --      2.6378                 0.8023                 6.8170

                     85                     86                     87
                      A                      A                      A
 Frequencies --   1499.4706              1503.2076              1506.9511
 Red. masses --      1.0700                 1.0862                 1.0611
 Frc consts  --      1.4174                 1.4461                 1.4197
 IR Inten    --     11.1696                25.3830                10.9896

                     88                     89                     90
                      A                      A                      A
 Frequencies --   1507.6795              1510.1553              1515.5199
 Red. masses --      1.0594                 1.0598                 1.0585
 Frc consts  --      1.4188                 1.4241                 1.4324
 IR Inten    --      7.4223                 7.2421                27.5148

                     91                     92                     93
                      A                      A                      A
 Frequencies --   1517.7799              1519.6006              3020.7370
 Red. masses --      1.0676                 1.0732                 1.0379
 Frc consts  --      1.4490                 1.4601                 5.5799
 IR Inten    --     19.7224                15.4686                22.2682

                     94                     95                     96
                      A                      A                      A
 Frequencies --   3025.1677              3025.3586              3026.3841
 Red. masses --      1.0385                 1.0377                 1.0380
 Frc consts  --      5.5993                 5.5962                 5.6015
 IR Inten    --     35.8501                27.0322                14.2152

                     97                     98                     99
                      A                      A                      A
 Frequencies --   3030.7975              3031.1443              3036.1297
 Red. masses --      1.0394                 1.0392                 1.0405
 Frc consts  --      5.6255                 5.6253                 5.6512
 IR Inten    --     20.7427                17.1263                15.5341

                    100                    101                    102
                      A                      A                      A
 Frequencies --   3038.4408              3045.8240              3095.0600
 Red. masses --      1.0383                 1.0861                 1.0873
 Frc consts  --      5.6475                 5.9365                 6.1366
 IR Inten    --     13.4316                44.7401                 8.0241

                    103                    104                    105
                      A                      A                      A
 Frequencies --   3106.1111              3109.2334              3113.0986
 Red. masses --      1.1047                 1.1039                 1.1047
 Frc consts  --      6.2796                 6.2874                 6.3080
 IR Inten    --      0.7702                35.3579                 3.4080

                    106                    107                    108
                      A                      A                      A
 Frequencies --   3114.3093              3114.8110              3116.7589
 Red. masses --      1.1038                 1.1037                 1.1037
 Frc consts  --      6.3078                 6.3092                 6.3170
 IR Inten    --     19.8565                27.3345                46.4062

                    109                    110                    111
                      A                      A                      A
 Frequencies --   3119.1742              3121.1669              3125.6282
 Red. masses --      1.1038                 1.1040                 1.1038
 Frc consts  --      6.3275                 6.3368                 6.3537
 IR Inten    --     43.2687                17.4600                36.2720

                    112                    113                    114
                      A                      A                      A
 Frequencies --   3127.2911              3132.3247              3132.7788
 Red. masses --      1.1042                 1.1038                 1.1021
 Frc consts  --      6.3626                 6.3808                 6.3731
 IR Inten    --     17.2820                18.9921                15.6236

                    115                    116                    117
                      A                      A                      A
 Frequencies --   3141.9142              3144.0627              3144.6159
 Red. masses --      1.1034                 1.1028                 1.1032
 Frc consts  --      6.4174                 6.4227                 6.4277
 IR Inten    --     19.4103                20.7059                13.1027

                    118                    119                    120
                      A                      A                      A
 Frequencies --   3155.2539              3579.2494              3762.2390
 Red. masses --      1.1047                 1.0674                 1.0657
 Frc consts  --      6.4799                 8.0570                 8.8872
 IR Inten    --      6.6456               569.9537                30.9374

 Optimization completed.
    -- Stationary point found.
 Normal termination of Gaussian 16 at Sun Feb  5 17:26:47 2023.
