 Gaussian 16, Revision B.01,
 Gaussian 16:  ES64L-G16RevB.01 20-Dec-2017

 ----------------------------------------------------------------------
 #T wB97XD/def2svpp opt=tight freq int(grid=ultrafine) scf=(verytight,q
 c) Volume=tight
 ----------------------------------------------------------------------
 -----
 Dimer
 -----
 Symbolic Z-matrix:
 Charge =  0 Multiplicity = 1

 SCF Done:  E(RwB97XD) =  -10988.8490021     a.u. after    7 cycles
 SCF Done:  E(RwB97XD) =  -10988.8514431     a.u. after   11 cycles
 SCF Done:  E(RwB97XD) =  -10988.8504802     a.u. after   11 cycles
 SCF Done:  E(RwB97XD) =  -10988.8515014     a.u. after   13 cycles
 SCF Done:  E(RwB97XD) =  -10988.8528546     a.u. after   11 cycles
 SCF Done:  E(RwB97XD) =  -10988.8533599     a.u. after    9 cycles
 SCF Done:  E(RwB97XD) =  -10988.8540028     a.u. after    7 cycles
 SCF Done:  E(RwB97XD) =  -10988.8540409     a.u. after    7 cycles
 SCF Done:  E(RwB97XD) =  -10988.8544491     a.u. after    6 cycles
 SCF Done:  E(RwB97XD) =  -10988.8544925     a.u. after    5 cycles
 SCF Done:  E(RwB97XD) =  -10988.8547423     a.u. after    2 cycles
 SCF Done:  E(RwB97XD) =  -10988.8547423     a.u. after    2 cycles
 SCF Done:  E(RwB97XD) =  -10988.8547423     a.u. after    2 cycles
 SCF Done:  E(RwB97XD) =  -10988.8547422     a.u. after    2 cycles
 SCF Done:  E(RwB97XD) =  -10988.8547423     a.u. after    2 cycles
 SCF Done:  E(RwB97XD) =  -10988.8547422     a.u. after    2 cycles
 SCF Done:  E(RwB97XD) =  -10988.8547422     a.u. after    2 cycles
 SCF Done:  E(RwB97XD) =  -10988.8547422     a.u. after    2 cycles
 SCF Done:  E(RwB97XD) =  -10988.8547422     a.u. after    2 cycles
 Optimization completed.
    -- Stationary point found.
 Normal termination of Gaussian 16 at Mon Apr  1 18:34:13 2024.

 ---------------------------------------------------------------------
 #T Geom=AllCheck Guess=TCheck SCRF=Check GenChk RwB97XD/def2SVPP Freq
 ---------------------------------------------------------------------
 Structure from the checkpoint file:  "dimer.chk"
 -----
 Dimer
 -----
 Charge =  0 Multiplicity = 1

                         Standard orientation:
 ---------------------------------------------------------------------
 Center     Atomic      Atomic             Coordinates (Angstroms)
 Number     Number       Type             X           Y           Z
 ---------------------------------------------------------------------
      1          8           0       -1.929146   -1.174674    2.169191
      2          6           0       -3.001446   -0.693526    1.384894
      3          6           0       -2.580171   -0.330487   -0.056956
      4          6           0       -1.969553   -1.570745   -0.760752
      5          8           0       -0.850718   -2.090104   -0.082009
      6          6           0       -3.776176    0.194236   -0.858548
      7         35           0       -5.275735   -1.039548   -1.040922
      8          6           0       -1.493938    0.755080   -0.051403
      9         35           0       -1.982454    2.422471    0.834533
     10          1           0       -1.303211   -0.461038    2.390770
     11          1           0       -3.481433    0.178958    1.865004
     12          1           0       -3.742843   -1.506733    1.353579
     13          1           0       -1.642342   -1.299862   -1.779890
     14          1           0       -2.756407   -2.342482   -0.858476
     15          1           0       -1.081416   -2.076303    0.872597
     16          1           0       -3.470907    0.445188   -1.885476
     17          1           0       -4.191040    1.096477   -0.388094
     18          1           0       -1.200858    1.032943   -1.074202
     19          1           0       -0.606370    0.402397    0.489856
     20          8           0        1.547616   -2.655858    1.075202
     21          6           0        2.795535   -2.060297    0.804247
     22          6           0        2.750440   -0.512780    0.674976
     23          6           0        2.060873    0.094212    1.926485
     24          8           0        0.742768   -0.353143    2.102972
     25          6           0        4.178386    0.042545    0.671233
     26         35           0        5.302906   -0.576073   -0.795224
     27          6           0        1.990550   -0.183345   -0.613059
     28         35           0        1.846539    1.717568   -1.012324
     29          1           0        0.957515   -2.640604    0.297038
     30          1           0        3.252734   -2.497622   -0.102199
     31          1           0        3.445921   -2.320803    1.656511
     32          1           0        2.025242    1.192328    1.839467
     33          1           0        2.677035   -0.152360    2.815794
     34          1           0        0.775832   -1.328008    2.005229
     35          1           0        4.708502   -0.241329    1.592169
     36          1           0        4.167175    1.138778    0.590203
     37          1           0        0.962463   -0.567513   -0.560065
     38          1           0        2.499276   -0.626174   -1.481523
 ---------------------------------------------------------------------

 SCF Done:  E(RwB97XD) =  -10988.8547422     a.u. after    1 cycles

 The electronic state is 1-A.
 Alpha  occ. eigenvalues -- -483.06179-483.06057-483.05987-483.05721 -62.64392
 Alpha  occ. eigenvalues --  -62.64250 -62.64201 -62.63924 -56.45163 -56.45018
 Alpha  occ. eigenvalues --  -56.44972 -56.44803 -56.44793 -56.44691 -56.44669
 Alpha  occ. eigenvalues --  -56.44656 -56.44611 -56.44603 -56.44338 -56.44333
 Alpha  occ. eigenvalues --  -19.27985 -19.27898 -19.27040 -19.26824 -10.36557
 Alpha  occ. eigenvalues --  -10.36462 -10.36253 -10.36080 -10.36053 -10.35820
 Alpha  occ. eigenvalues --  -10.35727 -10.35502 -10.34728 -10.34501  -8.81336
 Alpha  occ. eigenvalues --   -8.81182  -8.81146  -8.80862  -6.63885  -6.63710
 Alpha  occ. eigenvalues --   -6.63693  -6.63388  -6.62578  -6.62540  -6.62439
 Alpha  occ. eigenvalues --   -6.62392  -6.62384  -6.62354  -6.62106  -6.62086
 Alpha  occ. eigenvalues --   -2.74247  -2.74077  -2.74055  -2.73885  -2.73854
 Alpha  occ. eigenvalues --   -2.73755  -2.73727  -2.73691  -2.73689  -2.73667
 Alpha  occ. eigenvalues --   -2.73394  -2.73378  -2.72813  -2.72813  -2.72676
 Alpha  occ. eigenvalues --   -2.72676  -2.72624  -2.72624  -2.72356  -2.72356
 Alpha  occ. eigenvalues --   -1.15476  -1.14475  -1.12736  -1.12000  -0.96728
 Alpha  occ. eigenvalues --   -0.96349  -0.90890  -0.90637  -0.87423  -0.86724
 Alpha  occ. eigenvalues --   -0.79735  -0.78994  -0.78100  -0.77286  -0.76203
 Alpha  occ. eigenvalues --   -0.76066  -0.67868  -0.66956  -0.64407  -0.64114
 Alpha  occ. eigenvalues --   -0.61674  -0.59862  -0.59096  -0.58549  -0.57258
 Alpha  occ. eigenvalues --   -0.56177  -0.55644  -0.55067  -0.53187  -0.52905
 Alpha  occ. eigenvalues --   -0.52575  -0.50579  -0.50423  -0.50021  -0.49577
 Alpha  occ. eigenvalues --   -0.49339  -0.47754  -0.47248  -0.46675  -0.45545
 Alpha  occ. eigenvalues --   -0.45157  -0.44834  -0.43153  -0.41872  -0.39882
 Alpha  occ. eigenvalues --   -0.38660  -0.37764  -0.37515  -0.37077  -0.36777
 Alpha  occ. eigenvalues --   -0.36638  -0.36531  -0.36275  -0.36042  -0.35957
 Alpha  occ. eigenvalues --   -0.35548
 Alpha virt. eigenvalues --    0.06540   0.06856   0.07080   0.07358   0.12377
 Alpha virt. eigenvalues --    0.12944   0.13417   0.15092   0.15767   0.15920
 Alpha virt. eigenvalues --    0.16957   0.17912   0.18395   0.18940   0.19941

 Mulliken charges:
               1
     1  O   -0.522515
     2  C    0.055775
     3  C   -0.315274
     4  C    0.098525
     5  O   -0.538870
     6  C   -0.194298
     7  Br  -0.112069
     8  C   -0.292508
     9  Br  -0.112295
    10  H    0.362917
    11  H    0.128562
    12  H    0.132594
    13  H    0.107162
    14  H    0.126105
    15  H    0.348576
    16  H    0.161572
    17  H    0.178994
    18  H    0.164192
    19  H    0.216841
    20  O   -0.522849
    21  C    0.063625
    22  C   -0.333484
    23  C    0.097424
    24  O   -0.519242
    25  C   -0.195542
    26  Br  -0.108443
    27  C   -0.239478
    28  Br  -0.107772
    29  H    0.363405
    30  H    0.127728
    31  H    0.118129
    32  H    0.130100
    33  H    0.100835
    34  H    0.341540
    35  H    0.162889
    36  H    0.178662
    37  H    0.177095
    38  H    0.171393
 Sum of Mulliken charges =  -0.00000

 Dipole moment (field-independent basis, Debye):
    X=              1.0078    Y=             -0.2020    Z=              0.0128  Tot=              1.0279
  Exact polarizability: 212.827   1.115 173.899   0.622   3.688 154.713
 Approx polarizability: 208.083   2.043 211.706  -3.336   5.602 191.063
   1 Symmetry operations used in ECPInt.
 ECPInt:  NShTT=   14878 NPrTT=   68298 LenC2=   13232 LenP2D=   39404.
 LDataN:  DoStor=T MaxTD1= 6 Len=  172
 Calling FoFJK, ICntrl=    100127 FMM=F ISym2X=0 I1Cent= 0 IOpClX= 0 NMat=1 NMatS=1 NMatT=0.
 Full mass-weighted force constant matrix:
 Low frequencies ---   -3.3673   -0.0047    0.0032    0.0071    1.0531    5.9456
 Low frequencies ---   21.2917   27.4990   33.1800
 Diagonal vibrational polarizability:

                      1                      2                      3
                      A                      A                      A
 Frequencies --     21.2535                27.4923                33.1777
 Red. masses --     18.4312                18.7353                16.1692
 Frc consts  --      0.0049                 0.0083                 0.0105
 IR Inten    --      0.0698                 0.8871                 0.0759

                      4                      5                      6
                      A                      A                      A
 Frequencies --     46.6708                56.6159                67.1653
 Red. masses --     14.4447                18.9779                 6.8592
 Frc consts  --      0.0185                 0.0358                 0.0182
 IR Inten    --      0.4292                 0.2663                 0.3246

                      7                      8                      9
                      A                      A                      A
 Frequencies --     68.7331                81.0941                92.2590
 Red. masses --     10.9069                 8.4598                 4.8682
 Frc consts  --      0.0304                 0.0328                 0.0244
 IR Inten    --      0.2158                 0.5396                 3.5034

                     10                     11                     12
                      A                      A                      A
 Frequencies --    126.3920               141.0300               150.9035
 Red. masses --      6.6828                 6.2747                 6.9243
 Frc consts  --      0.0629                 0.0735                 0.0929
 IR Inten    --      1.6310                 0.6617                 5.8528

                     13                     14                     15
                      A                      A                      A
 Frequencies --    171.0426               171.6702               189.7448
 Red. masses --      5.8520                 5.2463                 4.7946
 Frc consts  --      0.1009                 0.0911                 0.1017
 IR Inten    --      1.6032                 8.7772                 2.1644

                     16                     17                     18
                      A                      A                      A
 Frequencies --    204.4296               208.0829               228.8002
 Red. masses --      2.9364                 3.7256                 2.3687
 Frc consts  --      0.0723                 0.0950                 0.0731
 IR Inten    --      6.9868                 7.8692                 2.5054

                     19                     20                     21
                      A                      A                      A
 Frequencies --    247.8494               256.2786               298.9999
 Red. masses --      3.9843                 3.3034                 4.7048
 Frc consts  --      0.1442                 0.1278                 0.2478
 IR Inten    --      3.7162                 3.6163                 4.2025

                     22                     23                     24
                      A                      A                      A
 Frequencies --    309.2073               323.8855               331.0701
 Red. masses --      3.4235                 2.4028                 3.7365
 Frc consts  --      0.1928                 0.1485                 0.2413
 IR Inten    --     13.7985                 4.4833                 2.6203

                     25                     26                     27
                      A                      A                      A
 Frequencies --    352.8850               359.5680               410.7372
 Red. masses --      3.7930                 2.7075                 2.8740
 Frc consts  --      0.2783                 0.2062                 0.2857
 IR Inten    --      9.6634                 3.3694                 2.8123

                     28                     29                     30
                      A                      A                      A
 Frequencies --    421.6183               475.8474               477.9443
 Red. masses --      3.4807                 3.0040                 3.2466
 Frc consts  --      0.3645                 0.4008                 0.4369
 IR Inten    --      2.4373                 2.5280                 0.9019

                     31                     32                     33
                      A                      A                      A
 Frequencies --    564.9329               589.7494               603.5764
 Red. masses --      1.1076                 3.8558                 1.7739
 Frc consts  --      0.2083                 0.7901                 0.3808
 IR Inten    --    169.2652                 8.9909               118.7439

                     34                     35                     36
                      A                      A                      A
 Frequencies --    617.2358               674.6063               693.1538
 Red. masses --      1.5956                 3.9282                 4.8632
 Frc consts  --      0.3581                 1.0533                 1.3767
 IR Inten    --    167.2782                 6.8496                24.6233

                     37                     38                     39
                      A                      A                      A
 Frequencies --    708.7239               719.4454               750.8700
 Red. masses --      4.3362                 3.2416                 1.3860
 Frc consts  --      1.2833                 0.9886                 0.4604
 IR Inten    --     20.9127                53.2612                14.8267

                     40                     41                     42
                      A                      A                      A
 Frequencies --    780.1011               805.5955               842.3033
 Red. masses --      2.6929                 2.7189                 1.5540
 Frc consts  --      0.9655                 1.0396                 0.6496
 IR Inten    --     37.6129                32.8605                24.4683

                     43                     44                     45
                      A                      A                      A
 Frequencies --    850.7755               872.2917               879.9106
 Red. masses --      1.6536                 1.7200                 1.4854
 Frc consts  --      0.7052                 0.7711                 0.6776
 IR Inten    --      8.1417                21.6603               182.7669

                     46                     47                     48
                      A                      A                      A
 Frequencies --    896.4275               952.6925               960.3382
 Red. masses --      1.5920                 1.5722                 1.5754
 Frc consts  --      0.7537                 0.8407                 0.8560
 IR Inten    --     33.6087                18.6424                11.9570

                     49                     50                     51
                      A                      A                      A
 Frequencies --    969.4714               978.1469              1089.3207
 Red. masses --      1.7039                 1.6746                 2.2411
 Frc consts  --      0.9435                 0.9440                 1.5669
 IR Inten    --     11.1139                14.7922                29.0984

                     52                     53                     54
                      A                      A                      A
 Frequencies --   1099.5903              1110.2259              1117.3230
 Red. masses --      1.7328                 2.2879                 2.6828
 Frc consts  --      1.2344                 1.6615                 1.9733
 IR Inten    --      5.3685                 7.9307               139.1974

                     55                     56                     57
                      A                      A                      A
 Frequencies --   1125.4155              1138.1549              1155.9809
 Red. masses --      3.0389                 3.0728                 2.2988
 Frc consts  --      2.2677                 2.3452                 1.8099
 IR Inten    --     14.5393                18.5400               196.6207

                     58                     59                     60
                      A                      A                      A
 Frequencies --   1162.8904              1174.7441              1204.4829
 Red. masses --      2.2905                 2.2815                 1.8627
 Frc consts  --      1.8250                 1.8551                 1.5922
 IR Inten    --     88.8602                23.8667                33.8663

                     61                     62                     63
                      A                      A                      A
 Frequencies --   1229.4912              1239.2396              1243.3137
 Red. masses --      1.1667                 1.3638                 1.2576
 Frc consts  --      1.0391                 1.2340                 1.1454
 IR Inten    --      3.2914                19.9265                12.0378

                     64                     65                     66
                      A                      A                      A
 Frequencies --   1253.9046              1278.9372              1281.3053
 Red. masses --      1.3174                 1.1687                 1.1540
 Frc consts  --      1.2204                 1.1263                 1.1163
 IR Inten    --      2.8641                 2.6993                32.4875

                     67                     68                     69
                      A                      A                      A
 Frequencies --   1306.8458              1321.7043              1329.5608
 Red. masses --      1.3531                 1.3488                 1.4913
 Frc consts  --      1.3615                 1.3883                 1.5532
 IR Inten    --      9.1285                 4.0091                64.3118

                     70                     71                     72
                      A                      A                      A
 Frequencies --   1335.3315              1345.6624              1366.1466
 Red. masses --      1.5712                 1.5932                 1.5575
 Frc consts  --      1.6507                 1.6998                 1.7127
 IR Inten    --     55.1411                17.0031                20.1521

                     73                     74                     75
                      A                      A                      A
 Frequencies --   1383.6271              1396.6696              1410.8175
 Red. masses --      1.2417                 1.2236                 1.2016
 Frc consts  --      1.4006                 1.4062                 1.4092
 IR Inten    --      0.8898                 0.9491                36.9705

                     76                     77                     78
                      A                      A                      A
 Frequencies --   1426.8206              1437.4742              1443.6726
 Red. masses --      1.1817                 1.4296                 1.3361
 Frc consts  --      1.4175                 1.7405                 1.6407
 IR Inten    --     60.4073                20.1187                13.0992

                     79                     80                     81
                      A                      A                      A
 Frequencies --   1469.2314              1472.6854              1474.5830
 Red. masses --      1.0976                 1.1225                 1.1037
 Frc consts  --      1.3960                 1.4343                 1.4139
 IR Inten    --     25.0898                13.6738                 7.2749

                     82                     83                     84
                      A                      A                      A
 Frequencies --   1496.0419              1497.1012              1500.9186
 Red. masses --      1.0857                 1.0765                 1.0797
 Frc consts  --      1.4316                 1.4216                 1.4331
 IR Inten    --     11.1695                 2.0785                14.5272

                     85                     86                     87
                      A                      A                      A
 Frequencies --   1515.3421              1516.1657              1530.2544
 Red. masses --      1.0892                 1.0869                 1.1647
 Frc consts  --      1.4736                 1.4722                 1.6069
 IR Inten    --      3.5766                 8.0496               173.1666

                     88                     89                     90
                      A                      A                      A
 Frequencies --   1578.6528              3003.8497              3036.1598
 Red. masses --      1.1312                 1.0706                 1.0613
 Frc consts  --      1.6609                 5.6916                 5.7644
 IR Inten    --     11.2503                65.1870                39.8060

                     91                     92                     93
                      A                      A                      A
 Frequencies --   3047.3773              3056.2492              3098.6609
 Red. masses --      1.0620                 1.0669                 1.1040
 Frc consts  --      5.8107                 5.8713                 6.2456
 IR Inten    --     38.3419                24.9598                14.6793

                     94                     95                     96
                      A                      A                      A
 Frequencies --   3101.7666              3102.6532              3111.6942
 Red. masses --      1.0646                 1.0611                 1.0721
 Frc consts  --      6.0346                 6.0184                 6.1162
 IR Inten    --     10.2477                 4.7668                 4.6251

                     97                     98                     99
                      A                      A                      A
 Frequencies --   3112.4377              3114.3779              3119.6891
 Red. masses --      1.0631                 1.0957                 1.0980
 Frc consts  --      6.0679                 6.2617                 6.2963
 IR Inten    --     16.0386                14.5675                12.4732

                    100                    101                    102
                      A                      A                      A
 Frequencies --   3140.1087              3176.1774              3177.7178
 Red. masses --      1.1041                 1.1105                 1.1097
 Frc consts  --      6.4142                 6.6004                 6.6023
 IR Inten    --      9.9872                 0.6739                 0.4062

                    103                    104                    105
                      A                      A                      A
 Frequencies --   3189.1822              3195.1139              3491.6978
 Red. masses --      1.1095                 1.1092                 1.0666
 Frc consts  --      6.6488                 6.6719                 7.6620
 IR Inten    --     11.8172                32.7746               221.6257

                    106                    107                    108
                      A                      A                      A
 Frequencies --   3525.1828              3623.1837              3661.4417
 Red. masses --      1.0662                 1.0672                 1.0670
 Frc consts  --      7.8063                 8.2540                 8.4277
 IR Inten    --    223.9879               326.3675               204.2549

                           ! Non-Optimized Parameters !
 Normal termination of Gaussian 16 at Mon Apr  1 18:55:59 2024.
