 Gaussian 16, Revision B.01,
 Gaussian 16:  ES64L-G16RevB.01 20-Dec-2017

 ----------------------------------------------------------------------
 #T wB97XD/def2svpp opt=tight freq int(grid=ultrafine) scf=(verytight,q
 c)
 ----------------------------------------------------------------------
 -------
 comment
 -------
 Symbolic Z-matrix:
 Charge =  1 Multiplicity = 2

 SCF Done:  E(UwB97XD) =  -477.871973130     a.u. after    9 cycles
 SCF Done:  E(UwB97XD) =  -477.885127908     a.u. after   14 cycles
 SCF Done:  E(UwB97XD) =  -477.887122310     a.u. after   11 cycles
 SCF Done:  E(UwB97XD) =  -477.887933356     a.u. after   11 cycles
 SCF Done:  E(UwB97XD) =  -477.888819120     a.u. after    9 cycles
 SCF Done:  E(UwB97XD) =  -477.889584624     a.u. after   12 cycles
 SCF Done:  E(UwB97XD) =  -477.891227869     a.u. after   12 cycles
 SCF Done:  E(UwB97XD) =  -477.894214853     a.u. after   26 cycles
 SCF Done:  E(UwB97XD) =  -477.896435154     a.u. after    9 cycles
 SCF Done:  E(UwB97XD) =  -477.900289637     a.u. after   11 cycles
 SCF Done:  E(UwB97XD) =  -477.914547560     a.u. after    3 cycles
 SCF Done:  E(UwB97XD) =  -477.914548670     a.u. after    3 cycles
 SCF Done:  E(UwB97XD) =  -477.914548921     a.u. after    2 cycles
 SCF Done:  E(UwB97XD) =  -477.914548956     a.u. after    2 cycles
 SCF Done:  E(UwB97XD) =  -477.914548974     a.u. after    2 cycles
 SCF Done:  E(UwB97XD) =  -477.914548981     a.u. after    2 cycles
 SCF Done:  E(UwB97XD) =  -477.914548983     a.u. after    2 cycles
 SCF Done:  E(UwB97XD) =  -477.914548979     a.u. after    2 cycles
 SCF Done:  E(UwB97XD) =  -477.914548983     a.u. after    2 cycles
 Optimization completed.
    -- Stationary point found.
 Normal termination of Gaussian 16 at Mon Jul 10 20:09:34 2023.

 ---------------------------------------------------------------------
 #T Geom=AllCheck Guess=TCheck SCRF=Check GenChk UwB97XD/def2SVPP Freq
 ---------------------------------------------------------------------
 Structure from the checkpoint file:  "28.chk"
 -------
 comment
 -------
 Charge =  1 Multiplicity = 2

                         Standard orientation:
 ---------------------------------------------------------------------
 Center     Atomic      Atomic             Coordinates (Angstroms)
 Number     Number       Type             X           Y           Z
 ---------------------------------------------------------------------
      1          7           0       -1.979249    1.358589   -0.296847
      2          6           0       -0.828029    0.900643   -0.921521
      3          6           0        0.055142   -0.054652    0.052859
      4          6           0       -0.847496   -0.952460    0.898053
      5          8           0       -1.994641   -1.278307    0.140438
      6          6           0        0.931011   -0.869306   -0.912879
      7          8           0        1.956708   -1.420095   -0.139423
      8          6           0        0.912689    0.861032    0.944814
      9          8           0        1.789057    1.647033    0.206481
     10          1           0       -2.729494    0.671774   -0.135588
     11          1           0       -2.040115    2.282410    0.138761
     12          1           0       -0.165921    1.723027   -1.231689
     13          1           0       -1.128032    0.230013   -1.747118
     14          1           0       -1.131922   -0.438391    1.838047
     15          1           0       -0.263354   -1.849958    1.169640
     16          1           0       -2.449652   -2.044125    0.518453
     17          1           0        1.328787   -0.203855   -1.704523
     18          1           0        0.302826   -1.643659   -1.396115
     19          1           0        2.470121   -2.053479   -0.660277
     20          1           0        1.436256    0.211141    1.670309
     21          1           0        0.257117    1.536554    1.522770
     22          1           0        2.619235    1.167827    0.067335
 ---------------------------------------------------------------------

 SCF Done:  E(UwB97XD) =  -477.914548983     a.u. after    1 cycles

 The electronic state is 2-A.
 Alpha  occ. eigenvalues --  -19.42911 -19.40385 -19.39798 -14.73557 -10.53322
 Alpha  occ. eigenvalues --  -10.50562 -10.50432 -10.49689 -10.49365  -1.29251
 Alpha  occ. eigenvalues --   -1.27419  -1.26226  -1.25708  -1.07763  -0.97277
 Alpha  occ. eigenvalues --   -0.93239  -0.92351  -0.87078  -0.82166  -0.79884
 Alpha  occ. eigenvalues --   -0.77757  -0.75962  -0.75124  -0.74301  -0.70977
 Alpha  occ. eigenvalues --   -0.68420  -0.68306  -0.66086  -0.64114  -0.63258
 Alpha  occ. eigenvalues --   -0.60831  -0.57749  -0.57347  -0.55014  -0.53022
 Alpha  occ. eigenvalues --   -0.51130  -0.50575
 Alpha virt. eigenvalues --   -0.05186  -0.01561  -0.00705   0.01313   0.01611
 Alpha virt. eigenvalues --    0.03386   0.03789   0.04627   0.05910   0.06979
 Alpha virt. eigenvalues --    0.07742   0.10208   0.10420   0.11199   0.11880

  Beta  occ. eigenvalues --  -19.42882 -19.40364 -19.39767 -14.72223 -10.53284
  Beta  occ. eigenvalues --  -10.50576 -10.50129 -10.49680 -10.49364  -1.28982
  Beta  occ. eigenvalues --   -1.27334  -1.26069  -1.22679  -1.06713  -0.96193
  Beta  occ. eigenvalues --   -0.92976  -0.92197  -0.85979  -0.80987  -0.79631
  Beta  occ. eigenvalues --   -0.76906  -0.75165  -0.74507  -0.74114  -0.70483
  Beta  occ. eigenvalues --   -0.68079  -0.66070  -0.65058  -0.63179  -0.62559
  Beta  occ. eigenvalues --   -0.59603  -0.57144  -0.55781  -0.53009  -0.51096
  Beta  occ. eigenvalues --   -0.50390
  Beta virt. eigenvalues --   -0.28918  -0.04644  -0.01345  -0.00568   0.01529
  Beta virt. eigenvalues --    0.01734   0.03702   0.03998   0.04802   0.06069
  Beta virt. eigenvalues --    0.07307   0.07927   0.10307   0.10690   0.11672

 Mulliken charges and spin densities:
               1          2
     1  N   -0.246518   0.765087
     2  C   -0.088023  -0.005856
     3  C   -0.376820   0.188152
     4  C    0.044664  -0.005946
     5  O   -0.512216   0.011512
     6  C    0.028953   0.004995
     7  O   -0.480882   0.004208
     8  C    0.057837   0.004003
     9  O   -0.468344   0.012516
    10  H    0.344658  -0.025740
    11  H    0.334875  -0.028844
    12  H    0.215329   0.006972
    13  H    0.209313   0.049047
    14  H    0.132795  -0.000294
    15  H    0.167483   0.004518
    16  H    0.363329  -0.000675
    17  H    0.136658  -0.000529
    18  H    0.138980  -0.000386
    19  H    0.354316   0.002674
    20  H    0.173034   0.015207
    21  H    0.117077  -0.000202
    22  H    0.353503  -0.000421
 Sum of Mulliken charges =   1.00000   1.00000

 Dipole moment (field-independent basis, Debye):
    X=             -4.2670    Y=              0.1522    Z=             -0.5776  Tot=              4.3086
  Exact polarizability:  90.383  -9.144  70.982   2.596  -1.512  61.113
 Approx polarizability:  86.243  -7.058  73.948   1.423  -1.106  66.478
                          Isotropic Fermi Contact Couplings
        Atom                 a.u.       MegaHertz       Gauss      10(-4) cm-1
     1  N(14)              0.23785      76.85135      27.42247      25.63485
     2  C(13)             -0.03703     -41.63294     -14.85567     -13.88726
     3  C(13)              0.04968      55.85104      19.92904      18.62990
     4  C(13)             -0.00812      -9.13139      -3.25831      -3.04591
     5  O(17)             -0.00027       0.16487       0.05883       0.05500
     6  C(13)              0.00217       2.43451       0.86869       0.81206

                      1                      2                      3
                      A                      A                      A
 Frequencies --     76.0689               103.2409               144.8604
 Red. masses --      4.5858                 3.5976                 3.8068
 Frc consts  --      0.0156                 0.0226                 0.0471
 IR Inten    --     12.9896                 2.0638                 4.5548

                      4                      5                      6
                      A                      A                      A
 Frequencies --    173.2688               199.6168               270.4302
 Red. masses --      2.6458                 3.0572                 1.7136
 Frc consts  --      0.0468                 0.0718                 0.0738
 IR Inten    --      1.9697                 8.5247                29.8386

                      7                      8                      9
                      A                      A                      A
 Frequencies --    273.6627               292.1521               306.8143
 Red. masses --      3.1487                 1.5310                 1.4168
 Frc consts  --      0.1389                 0.0770                 0.0786
 IR Inten    --     17.3697                24.1783               122.0865

                     10                     11                     12
                      A                      A                      A
 Frequencies --    331.2583               333.5731               370.7754
 Red. masses --      2.0478                 1.8588                 2.5772
 Frc consts  --      0.1324                 0.1219                 0.2087
 IR Inten    --     16.3390                17.0846                28.1936

                     13                     14                     15
                      A                      A                      A
 Frequencies --    390.9243               420.3745               432.5844
 Red. masses --      1.2950                 2.7111                 1.3984
 Frc consts  --      0.1166                 0.2823                 0.1542
 IR Inten    --     90.9483                31.7449                91.3666

                     16                     17                     18
                      A                      A                      A
 Frequencies --    516.8024               614.8678               683.1586
 Red. masses --      2.7565                 2.9078                 2.9472
 Frc consts  --      0.4338                 0.6477                 0.8104
 IR Inten    --      3.4396                29.5240               166.0800

                     19                     20                     21
                      A                      A                      A
 Frequencies --    775.2975               845.0670               875.6917
 Red. masses --      1.6543                 2.6549                 1.2592
 Frc consts  --      0.5859                 1.1171                 0.5689
 IR Inten    --    108.1214                15.4726                20.9953

                     22                     23                     24
                      A                      A                      A
 Frequencies --    938.3000               982.1744               995.0039
 Red. masses --      1.5273                 1.6743                 1.7260
 Frc consts  --      0.7923                 0.9516                 1.0068
 IR Inten    --      4.8971               105.6596               153.8556

                     25                     26                     27
                      A                      A                      A
 Frequencies --   1084.3455              1107.4993              1136.7300
 Red. masses --      1.3435                 4.3552                 2.4478
 Frc consts  --      0.9307                 3.1473                 1.8636
 IR Inten    --     23.4393                48.9829                56.1486

                     28                     29                     30
                      A                      A                      A
 Frequencies --   1166.4813              1170.5250              1177.8486
 Red. masses --      2.9299                 3.7355                 1.6815
 Frc consts  --      2.3489                 3.0155                 1.3744
 IR Inten    --     88.4906               120.5298                24.4379

                     31                     32                     33
                      A                      A                      A
 Frequencies --   1226.1602              1233.8401              1249.2472
 Red. masses --      2.1071                 1.2358                 1.2871
 Frc consts  --      1.8665                 1.1085                 1.1835
 IR Inten    --      8.7294                42.9327                 3.6064

                     34                     35                     36
                      A                      A                      A
 Frequencies --   1267.8583              1283.9211              1319.5019
 Red. masses --      1.4452                 1.3395                 1.1609
 Frc consts  --      1.3687                 1.3010                 1.1909
 IR Inten    --      4.4704                60.1164                 0.7367

                     37                     38                     39
                      A                      A                      A
 Frequencies --   1327.2444              1368.3496              1408.7765
 Red. masses --      1.3388                 1.2558                 1.2760
 Frc consts  --      1.3895                 1.3853                 1.4921
 IR Inten    --     76.1492                 7.6006                13.4941

                     40                     41                     42
                      A                      A                      A
 Frequencies --   1413.2951              1459.0000              1479.5346
 Red. masses --      1.1947                 1.4946                 1.2640
 Frc consts  --      1.4060                 1.8745                 1.6302
 IR Inten    --     42.9519                 4.5603                 3.7393

                     43                     44                     45
                      A                      A                      A
 Frequencies --   1481.7773              1495.4488              1526.0383
 Red. masses --      1.2974                 1.1332                 1.0885
 Frc consts  --      1.6783                 1.4931                 1.4935
 IR Inten    --     11.3129                 6.6485                12.8432

                     46                     47                     48
                      A                      A                      A
 Frequencies --   1541.1409              1610.1682              3012.2524
 Red. masses --      1.1025                 1.1830                 1.0578
 Frc consts  --      1.5429                 1.8071                 5.6551
 IR Inten    --      7.5196                26.9036                16.2679

                     49                     50                     51
                      A                      A                      A
 Frequencies --   3015.3539              3045.6087              3046.9772
 Red. masses --      1.0656                 1.0601                 1.0577
 Frc consts  --      5.7087                 5.7934                 5.7859
 IR Inten    --     31.0969                14.8710                21.8286

                     52                     53                     54
                      A                      A                      A
 Frequencies --   3067.0255              3096.3555              3105.6464
 Red. masses --      1.1106                 1.1039                 1.1092
 Frc consts  --      6.1551                 6.2354                 6.3034
 IR Inten    --     16.3080                 1.3845                 9.8931

                     55                     56                     57
                      A                      A                      A
 Frequencies --   3166.2626              3428.2126              3574.4785
 Red. masses --      1.1108                 1.0537                 1.1019
 Frc consts  --      6.5611                 7.2965                 8.2950
 IR Inten    --     10.9202               220.2888               165.2869

                     58                     59                     60
                      A                      A                      A
 Frequencies --   3758.8039              3771.2616              3773.1807
 Red. masses --      1.0666                 1.0668                 1.0672
 Frc consts  --      8.8790                 8.9398                 8.9518
 IR Inten    --    128.5851               126.2270               142.2717

 Optimization completed.
    -- Stationary point found.
 Normal termination of Gaussian 16 at Mon Jul 10 20:13:36 2023.
