 Gaussian 16, Revision B.01,
 Gaussian 16:  ES64L-G16RevB.01 20-Dec-2017

 ----------------------------------------------------------------------
 #T wB97XD/def2svpp opt=tight freq int(grid=ultrafine) scf=(verytight,q
 c)
 ----------------------------------------------------------------------
 -----
 dimer
 -----
 Symbolic Z-matrix:
 Charge =  0 Multiplicity = 1

 SCF Done:  E(RwB97XD) =  -473.634810525     a.u. after    6 cycles
 SCF Done:  E(RwB97XD) =  -473.640173965     a.u. after    5 cycles
 SCF Done:  E(RwB97XD) =  -473.640362706     a.u. after    5 cycles
 SCF Done:  E(RwB97XD) =  -473.640518770     a.u. after    6 cycles
 SCF Done:  E(RwB97XD) =  -473.640612424     a.u. after    6 cycles
 SCF Done:  E(RwB97XD) =  -473.640724212     a.u. after    6 cycles
 SCF Done:  E(RwB97XD) =  -473.640797788     a.u. after    4 cycles
 SCF Done:  E(RwB97XD) =  -473.640811766     a.u. after    3 cycles
 SCF Done:  E(RwB97XD) =  -473.640821154     a.u. after    2 cycles
 SCF Done:  E(RwB97XD) =  -473.640838572     a.u. after    4 cycles
 SCF Done:  E(RwB97XD) =  -473.640866502     a.u. after    2 cycles
 SCF Done:  E(RwB97XD) =  -473.640866502     a.u. after    2 cycles
 SCF Done:  E(RwB97XD) =  -473.640866501     a.u. after    2 cycles
 SCF Done:  E(RwB97XD) =  -473.640866501     a.u. after    2 cycles
 SCF Done:  E(RwB97XD) =  -473.640866501     a.u. after    2 cycles
 SCF Done:  E(RwB97XD) =  -473.640866501     a.u. after    2 cycles
 SCF Done:  E(RwB97XD) =  -473.640866502     a.u. after    2 cycles
 SCF Done:  E(RwB97XD) =  -473.640866502     a.u. after    2 cycles
 SCF Done:  E(RwB97XD) =  -473.640866502     a.u. after    2 cycles
 Optimization completed.
    -- Stationary point found.
 Normal termination of Gaussian 16 at Tue Aug  9 17:09:33 2022.

 ---------------------------------------------------------------------
 #T Geom=AllCheck Guess=TCheck SCRF=Check GenChk RwB97XD/def2SVPP Freq
 ---------------------------------------------------------------------
 Structure from the checkpoint file:  "/scratch/user/peterchao1/peterchao1/6113310_1660079070000000131253344/Gau-172764.chk"
 -----
 dimer
 -----
 Charge =  0 Multiplicity = 1

                         Standard orientation:
 ---------------------------------------------------------------------
 Center     Atomic      Atomic             Coordinates (Angstroms)
 Number     Number       Type             X           Y           Z
 ---------------------------------------------------------------------
      1          6           0       -1.256346    1.979356    0.034733
      2          6           0       -1.684042    0.683493    0.720263
      3          6           0       -2.755578   -0.167419    0.001124
      4          6           0       -4.085432    0.595478   -0.086838
      5          6           0       -2.293827   -0.553691   -1.411450
      6          6           0       -2.967076   -1.448830    0.821427
      7          1           0       -0.510496    2.511084    0.650739
      8          1           0       -2.105356    2.667827   -0.118072
      9          1           0       -0.792046    1.792561   -0.948989
     10          1           0       -2.058943    0.922027    1.733781
     11          1           0       -0.789987    0.050586    0.871556
     12          1           0       -4.435605    0.900754    0.916030
     13          1           0       -4.869860   -0.037434   -0.539564
     14          1           0       -3.997286    1.504605   -0.706954
     15          1           0       -2.183188    0.329622   -2.064181
     16          1           0       -3.027251   -1.227642   -1.889737
     17          1           0       -1.322468   -1.079034   -1.382460
     18          1           0       -3.293918   -1.213479    1.850511
     19          1           0       -2.031992   -2.033998    0.889050
     20          1           0       -3.737372   -2.093888    0.361528
     21          6           0        1.266616   -1.986375   -0.038339
     22          6           0        1.686124   -0.686247   -0.720828
     23          6           0        2.753508    0.168866   -0.000437
     24          6           0        4.090348   -0.583058    0.075652
     25          6           0        2.949956    1.457955   -0.812407
     26          6           0        2.295373    0.540658    1.417184
     27          1           0        0.526776   -2.523114   -0.657222
     28          1           0        0.798052   -1.804268    0.944250
     29          1           0        2.120444   -2.668494    0.116202
     30          1           0        0.788068   -0.058430   -0.869271
     31          1           0        2.061305   -0.919503   -1.735465
     32          1           0        4.439444   -0.876000   -0.931251
     33          1           0        4.012526   -1.498605    0.687668
     34          1           0        4.870882    0.052548    0.531333
     35          1           0        3.272269    1.232742   -1.845186
     36          1           0        3.718046    2.105609   -0.352459
     37          1           0        2.009895    2.036174   -0.869955
     38          1           0        2.197631   -0.348265    2.064338
     39          1           0        1.318390    1.055880    1.397160
     40          1           0        3.024294    1.219014    1.896125
 ---------------------------------------------------------------------

 SCF Done:  E(RwB97XD) =  -473.640866502     a.u. after    1 cycles

 The electronic state is 1-A.
 Alpha  occ. eigenvalues --  -10.30314 -10.30309 -10.28438 -10.28431 -10.27990
 Alpha  occ. eigenvalues --  -10.27987 -10.27657 -10.27655 -10.27653 -10.27652
 Alpha  occ. eigenvalues --  -10.27619 -10.27614  -0.91784  -0.91599  -0.82690
 Alpha  occ. eigenvalues --   -0.82600  -0.76981  -0.76975  -0.76905  -0.76904
 Alpha  occ. eigenvalues --   -0.70862  -0.70809  -0.61366  -0.61006  -0.55249
 Alpha  occ. eigenvalues --   -0.54840  -0.54420  -0.53708  -0.52299  -0.52131
 Alpha  occ. eigenvalues --   -0.50788  -0.50701  -0.48494  -0.47975  -0.46623
 Alpha  occ. eigenvalues --   -0.46187  -0.45667  -0.45654  -0.44271  -0.44121
 Alpha  occ. eigenvalues --   -0.43878  -0.43802  -0.42492  -0.42013  -0.39573
 Alpha  occ. eigenvalues --   -0.39485  -0.39475  -0.39224  -0.38878  -0.38541
 Alpha virt. eigenvalues --    0.11463   0.13810   0.14651   0.16456   0.16994
 Alpha virt. eigenvalues --    0.17734   0.18277   0.18391   0.19033   0.19295
 Alpha virt. eigenvalues --    0.19602   0.20270   0.20793   0.21565   0.22105

 Mulliken charges:
               1
     1  C   -0.349052
     2  C   -0.199863
     3  C   -0.242930
     4  C   -0.275141
     5  C   -0.298981
     6  C   -0.268178
     7  H    0.133020
     8  H    0.120572
     9  H    0.137223
    10  H    0.096225
    11  H    0.110990
    12  H    0.110441
    13  H    0.111391
    14  H    0.117735
    15  H    0.118420
    16  H    0.111739
    17  H    0.130066
    18  H    0.110360
    19  H    0.114874
    20  H    0.111471
    21  C   -0.348612
    22  C   -0.199671
    23  C   -0.242856
    24  C   -0.275013
    25  C   -0.268511
    26  C   -0.299256
    27  H    0.132828
    28  H    0.136812
    29  H    0.120471
    30  H    0.110769
    31  H    0.096184
    32  H    0.110413
    33  H    0.117647
    34  H    0.111368
    35  H    0.110326
    36  H    0.111434
    37  H    0.114988
    38  H    0.118443
    39  H    0.130135
    40  H    0.111722
 Sum of Mulliken charges =   0.00000

 Dipole moment (field-independent basis, Debye):
    X=             -0.0032    Y=             -0.0001    Z=              0.0001  Tot=              0.0032
  Exact polarizability: 146.792   1.968 128.955  -0.089   0.102 120.269
 Approx polarizability: 137.286  -0.012 135.656   0.385   0.301 134.377
   1 Symmetry operations used in ECPInt.
 ECPInt:  NShTT=    8256 NPrTT=   33136 LenC2=    7994 LenP2D=   23423.
 LDataN:  DoStor=T MaxTD1= 6 Len=  172
 Calling FoFJK, ICntrl=    100127 FMM=F ISym2X=0 I1Cent= 0 IOpClX= 0 NMat=1 NMatS=1 NMatT=0.
 Full mass-weighted force constant matrix:
 Low frequencies ---  -12.5233   -4.0849   -0.0009   -0.0008   -0.0005    4.3648
 Low frequencies ---   14.7302   21.7849   47.0787
 Diagonal vibrational polarizability:

                      1                      2                      3
                      A                      A                      A
 Frequencies --     14.6887                21.7585                47.0698
 Red. masses --      2.7059                 2.7977                 2.9779
 Frc consts  --      0.0003                 0.0008                 0.0039
 IR Inten    --      0.0232                 0.0142                 0.0003

                      4                      5                      6
                      A                      A                      A
 Frequencies --     51.5530                58.3435                78.9973
 Red. masses --      3.3734                 2.7946                 3.1729
 Frc consts  --      0.0053                 0.0056                 0.0117
 IR Inten    --      0.0003                 0.0498                 0.0008

                      7                      8                      9
                      A                      A                      A
 Frequencies --    102.0455               119.4689               212.8896
 Red. masses --      1.6671                 1.6859                 1.0323
 Frc consts  --      0.0102                 0.0142                 0.0276
 IR Inten    --      0.0145                 0.0043                 0.0030

                     10                     11                     12
                      A                      A                      A
 Frequencies --    218.6523               264.8373               267.7151
 Red. masses --      1.0204                 1.1876                 1.5465
 Frc consts  --      0.0287                 0.0491                 0.0653
 IR Inten    --      0.0371                 0.0020                 0.0107

                     13                     14                     15
                      A                      A                      A
 Frequencies --    270.3073               272.9813               283.4939
 Red. masses --      1.2550                 2.1851                 1.0622
 Frc consts  --      0.0540                 0.0959                 0.0503
 IR Inten    --      0.0452                 0.0004                 0.0074

                     16                     17                     18
                      A                      A                      A
 Frequencies --    286.1541               306.4278               316.4216
 Red. masses --      1.1123                 1.2248                 1.1833
 Frc consts  --      0.0537                 0.0678                 0.0698
 IR Inten    --      0.0504                 0.0102                 0.0002

                     19                     20                     21
                      A                      A                      A
 Frequencies --    345.3837               350.7350               370.5693
 Red. masses --      2.0216                 2.0638                 2.2103
 Frc consts  --      0.1421                 0.1496                 0.1788
 IR Inten    --      0.0248                 0.0003                 0.0831

                     22                     23                     24
                      A                      A                      A
 Frequencies --    371.2083               422.3417               424.5866
 Red. masses --      2.2451                 2.2250                 2.2482
 Frc consts  --      0.1823                 0.2338                 0.2388
 IR Inten    --      0.0002                 0.0001                 0.0233

                     25                     26                     27
                      A                      A                      A
 Frequencies --    430.4833               436.2520               495.8756
 Red. masses --      1.9963                 1.9758                 2.4034
 Frc consts  --      0.2180                 0.2216                 0.3482
 IR Inten    --      0.0702                 0.0001                 0.0084

                     28                     29                     30
                      A                      A                      A
 Frequencies --    496.5712               729.4597               729.8691
 Red. masses --      2.3877                 3.0109                 3.0064
 Frc consts  --      0.3469                 0.9439                 0.9436
 IR Inten    --      0.6355                 0.0000                 0.9927

                     31                     32                     33
                      A                      A                      A
 Frequencies --    793.5443               794.9737               897.9185
 Red. masses --      1.1814                 1.1753                 1.8989
 Frc consts  --      0.4383                 0.4376                 0.9020
 IR Inten    --      7.4368                 1.5160                 0.5300

                     34                     35                     36
                      A                      A                      A
 Frequencies --    898.1298               954.6293               954.9731
 Red. masses --      1.9015                 1.6311                 1.6284
 Frc consts  --      0.9037                 0.8758                 0.8750
 IR Inten    --      0.0216                 2.3937                 0.0827

                     37                     38                     39
                      A                      A                      A
 Frequencies --    956.7535               956.8580               968.9826
 Red. masses --      1.6253                 1.6234                 1.2139
 Frc consts  --      0.8766                 0.8757                 0.6715
 IR Inten    --      0.0284                 1.0968                 0.0250

                     40                     41                     42
                      A                      A                      A
 Frequencies --    969.0993              1012.5068              1013.6531
 Red. masses --      1.2133                 1.3124                 1.3102
 Frc consts  --      0.6714                 0.7927                 0.7932
 IR Inten    --      0.1224                 3.0676                 0.1234

                     43                     44                     45
                      A                      A                      A
 Frequencies --   1024.9805              1025.3049              1054.6572
 Red. masses --      1.3162                 1.3177                 1.8390
 Frc consts  --      0.8147                 0.8162                 1.2052
 IR Inten    --      5.1459                 1.8772                 0.0131

                     46                     47                     48
                      A                      A                      A
 Frequencies --   1055.5518              1109.0400              1110.7981
 Red. masses --      1.8680                 1.7072                 1.7933
 Frc consts  --      1.2263                 1.2372                 1.3037
 IR Inten    --      8.3913                 0.0058                 3.4474

                     49                     50                     51
                      A                      A                      A
 Frequencies --   1111.3784              1111.5714              1258.5137
 Red. masses --      1.4722                 1.5334                 2.2612
 Frc consts  --      1.0714                 1.1163                 2.1102
 IR Inten    --      2.0951                 0.1244                 0.3628

                     52                     53                     54
                      A                      A                      A
 Frequencies --   1258.5378              1262.8045              1263.3057
 Red. masses --      2.2888                 1.8505                 1.8740
 Frc consts  --      2.1359                 1.7387                 1.7621
 IR Inten    --     13.3402                 2.6200                 0.0328

                     55                     56                     57
                      A                      A                      A
 Frequencies --   1299.9008              1300.6087              1348.3051
 Red. masses --      2.6881                 2.6657                 1.3450
 Frc consts  --      2.6762                 2.6567                 1.4406
 IR Inten    --      0.0037                 6.3247                 0.0030

                     58                     59                     60
                      A                      A                      A
 Frequencies --   1349.6957              1384.5911              1388.6144
 Red. masses --      1.3547                 1.4301                 1.4081
 Frc consts  --      1.4541                 1.6154                 1.5998
 IR Inten    --      1.4394                 1.7650                 0.0041

                     61                     62                     63
                      A                      A                      A
 Frequencies --   1409.1304              1409.5950              1410.1191
 Red. masses --      1.3328                 1.3280                 1.3256
 Frc consts  --      1.5593                 1.5546                 1.5530
 IR Inten    --     15.0477                 5.7972                15.9687

                     64                     65                     66
                      A                      A                      A
 Frequencies --   1410.7187              1428.4656              1429.0791
 Red. masses --      1.3379                 1.3023                 1.3214
 Frc consts  --      1.5688                 1.5656                 1.5900
 IR Inten    --      0.0987                 5.9772                 0.4541

                     67                     68                     69
                      A                      A                      A
 Frequencies --   1435.6442              1436.0409              1471.3899
 Red. masses --      1.2565                 1.2572                 1.0795
 Frc consts  --      1.5259                 1.5275                 1.3770
 IR Inten    --     19.0399                 0.0054                 0.9378

                     70                     71                     72
                      A                      A                      A
 Frequencies --   1474.4420              1474.6921              1478.4387
 Red. masses --      1.0472                 1.0463                 1.0420
 Frc consts  --      1.3413                 1.3407                 1.3420
 IR Inten    --      1.2892                 0.0070                 0.0182

                     73                     74                     75
                      A                      A                      A
 Frequencies --   1479.0268              1480.0137              1483.6969
 Red. masses --      1.0545                 1.0428                 1.0475
 Frc consts  --      1.3591                 1.3458                 1.3586
 IR Inten    --      0.0047                 1.9619                 1.2388

                     76                     77                     78
                      A                      A                      A
 Frequencies --   1486.5142              1495.9244              1498.0749
 Red. masses --      1.0624                 1.0531                 1.0502
 Frc consts  --      1.3832                 1.3885                 1.3887
 IR Inten    --      0.0266                 0.4428                29.1137

                     79                     80                     81
                      A                      A                      A
 Frequencies --   1500.2066              1502.1252              1505.1452
 Red. masses --      1.0652                 1.0590                 1.0693
 Frc consts  --      1.4124                 1.4079                 1.4273
 IR Inten    --      3.4109                25.9908                19.0456

                     82                     83                     84
                      A                      A                      A
 Frequencies --   1507.1663              1508.9054              1509.6469
 Red. masses --      1.0658                 1.0650                 1.0656
 Frc consts  --      1.4265                 1.4286                 1.4308
 IR Inten    --      0.2030                 2.3622                 0.1206

                     85                     86                     87
                      A                      A                      A
 Frequencies --   1515.8199              1517.8550              3018.0218
 Red. masses --      1.0736                 1.0664                 1.0371
 Frc consts  --      1.4533                 1.4475                 5.5659
 IR Inten    --     24.9431                 0.0041                20.3341

                     88                     89                     90
                      A                      A                      A
 Frequencies --   3018.4792              3022.9672              3023.1319
 Red. masses --      1.0370                 1.0381                 1.0378
 Frc consts  --      5.5670                 5.5892                 5.5884
 IR Inten    --     25.5563                59.3026                 0.1632

                     91                     92                     93
                      A                      A                      A
 Frequencies --   3027.7612              3028.0915              3032.3106
 Red. masses --      1.0454                 1.0435                 1.0545
 Frc consts  --      5.6467                 5.6374                 5.7129
 IR Inten    --     14.2658                48.7814                36.0806

                     94                     95                     96
                      A                      A                      A
 Frequencies --   3033.0795              3036.7301              3037.3440
 Red. masses --      1.0532                 1.0432                 1.0406
 Frc consts  --      5.7089                 5.6679                 5.6562
 IR Inten    --      7.7738                 2.3145                17.0745

                     97                     98                     99
                      A                      A                      A
 Frequencies --   3082.6175              3085.1643              3110.0504
 Red. masses --      1.1018                 1.1007                 1.1050
 Frc consts  --      6.1685                 6.1727                 6.2970
 IR Inten    --     20.6202                11.5278                 0.6467

                    100                    101                    102
                      A                      A                      A
 Frequencies --   3110.1194              3110.9197              3111.8047
 Red. masses --      1.1050                 1.1047                 1.1047
 Frc consts  --      6.2973                 6.2992                 6.3026
 IR Inten    --      0.2377                12.1351                12.6341

                    103                    104                    105
                      A                      A                      A
 Frequencies --   3112.5575              3112.7291              3116.0597
 Red. masses --      1.1045                 1.1045                 1.1035
 Frc consts  --      6.3047                 6.3051                 6.3130
 IR Inten    --      3.5880                35.0642                90.6850

                    106                    107                    108
                      A                      A                      A
 Frequencies --   3116.1316              3119.4246              3119.7035
 Red. masses --      1.1036                 1.1038                 1.1038
 Frc consts  --      6.3137                 6.3285                 6.3296
 IR Inten    --      0.1027                72.6549                33.2369

                    109                    110                    111
                      A                      A                      A
 Frequencies --   3122.5592              3122.7829              3126.9697
 Red. masses --      1.1039                 1.1039                 1.1033
 Frc consts  --      6.3419                 6.3424                 6.3558
 IR Inten    --      6.2373                25.0045                98.4532

                    112                    113                    114
                      A                      A                      A
 Frequencies --   3127.3024              3130.9969              3131.5819
 Red. masses --      1.1031                 1.1042                 1.1040
 Frc consts  --      6.3561                 6.3777                 6.3791
 IR Inten    --      0.1831                31.7848                12.7241

                           ! Non-Optimized Parameters !
 Normal termination of Gaussian 16 at Tue Aug  9 17:18:07 2022.
