 Gaussian 16, Revision B.01,
 Gaussian 16:  ES64L-G16RevB.01 20-Dec-2017

 ----------------------------------------------------------------------
 #T wB97XD/def2svpp opt=tight freq int(grid=ultrafine) scf=(verytight,q
 c)
 ----------------------------------------------------------------------
 -------
 comment
 -------
 Symbolic Z-matrix:
 Charge =  1 Multiplicity = 2

 SCF Done:  E(UwB97XD) =  -438.609178618     a.u. after   10 cycles
 SCF Done:  E(UwB97XD) =  -438.623918952     a.u. after   17 cycles
 SCF Done:  E(UwB97XD) =  -438.636869105     a.u. after   20 cycles
 SCF Done:  E(UwB97XD) =  -438.645161311     a.u. after   13 cycles
 SCF Done:  E(UwB97XD) =  -438.649798780     a.u. after   13 cycles
 SCF Done:  E(UwB97XD) =  -438.650886543     a.u. after    8 cycles
 SCF Done:  E(UwB97XD) =  -438.650895756     a.u. after   10 cycles
 SCF Done:  E(UwB97XD) =  -438.651249560     a.u. after    8 cycles
 SCF Done:  E(UwB97XD) =  -438.651317285     a.u. after    5 cycles
 SCF Done:  E(UwB97XD) =  -438.651328752     a.u. after    3 cycles
 SCF Done:  E(UwB97XD) =  -438.651333050     a.u. after    2 cycles
 SCF Done:  E(UwB97XD) =  -438.651333217     a.u. after    2 cycles
 SCF Done:  E(UwB97XD) =  -438.651333324     a.u. after    2 cycles
 SCF Done:  E(UwB97XD) =  -438.651333358     a.u. after    2 cycles
 SCF Done:  E(UwB97XD) =  -438.651333363     a.u. after    2 cycles
 SCF Done:  E(UwB97XD) =  -438.651333366     a.u. after    2 cycles
 SCF Done:  E(UwB97XD) =  -438.651333364     a.u. after    2 cycles
 SCF Done:  E(UwB97XD) =  -438.651333368     a.u. after    2 cycles
 SCF Done:  E(UwB97XD) =  -438.651333368     a.u. after    2 cycles
 Optimization completed.
    -- Stationary point found.
 Normal termination of Gaussian 16 at Mon Jul 10 19:40:06 2023.

 ---------------------------------------------------------------------
 #T Geom=AllCheck Guess=TCheck SCRF=Check GenChk UwB97XD/def2SVPP Freq
 ---------------------------------------------------------------------
 Structure from the checkpoint file:  "27.chk"
 -------
 comment
 -------
 Charge =  1 Multiplicity = 2

                         Standard orientation:
 ---------------------------------------------------------------------
 Center     Atomic      Atomic             Coordinates (Angstroms)
 Number     Number       Type             X           Y           Z
 ---------------------------------------------------------------------
      1          7           0       -0.236704   -0.451694    1.319073
      2          6           0       -0.219280   -0.269233   -0.042156
      3          6           0        0.942816   -1.093227   -0.669530
      4          8           0        2.049816   -1.058664    0.164309
      5          6           0       -1.616885   -0.476894   -0.633565
      6          8           0       -2.495634    0.218917    0.202053
      7          6           0        0.167619    1.352154   -0.358131
      8          8           0        1.448392    1.648528   -0.030137
      9          1           0        0.637339   -0.704755    1.789680
     10          1           0       -1.106063   -0.301606    1.837103
     11          1           0        1.148742   -0.731960   -1.691753
     12          1           0        0.601319   -2.140296   -0.734919
     13          1           0        2.617251   -0.306991   -0.066766
     14          1           0       -1.821873   -1.565664   -0.641827
     15          1           0       -1.640302   -0.116067   -1.678823
     16          1           0       -3.415604    0.089783   -0.069424
     17          1           0       -0.606661    1.938593    0.160692
     18          1           0        0.054216    1.393820   -1.452743
     19          1           0        1.522356    2.059950    0.845755
 ---------------------------------------------------------------------

 SCF Done:  E(UwB97XD) =  -438.651333368     a.u. after    1 cycles

 The electronic state is 2-A.
 Alpha  occ. eigenvalues --  -19.47500 -19.43259 -19.42939 -14.69573 -10.55827
 Alpha  occ. eigenvalues --  -10.55135 -10.52713 -10.52465  -1.34694  -1.30579
 Alpha  occ. eigenvalues --   -1.29694  -1.23477  -1.05380  -0.96670  -0.95432
 Alpha  occ. eigenvalues --   -0.88055  -0.84785  -0.82422  -0.81060  -0.78272
 Alpha  occ. eigenvalues --   -0.75079  -0.74493  -0.71965  -0.70403  -0.68033
 Alpha  occ. eigenvalues --   -0.66949  -0.63356  -0.62492  -0.61141  -0.58764
 Alpha  occ. eigenvalues --   -0.55374  -0.54036  -0.51372
 Alpha virt. eigenvalues --   -0.04599  -0.02543  -0.01517   0.00558   0.01470
 Alpha virt. eigenvalues --    0.02173   0.02933   0.04822   0.06327   0.07257
 Alpha virt. eigenvalues --    0.07924   0.08985   0.10511   0.13159   0.13848

  Beta  occ. eigenvalues --  -19.47229 -19.43250 -19.42858 -14.68563 -10.55480
  Beta  occ. eigenvalues --  -10.55035 -10.52673 -10.52409  -1.34005  -1.30296
  Beta  occ. eigenvalues --   -1.29554  -1.21385  -1.04038  -0.95658  -0.95190
  Beta  occ. eigenvalues --   -0.87186  -0.84098  -0.81818  -0.80696  -0.77890
  Beta  occ. eigenvalues --   -0.74279  -0.73378  -0.71213  -0.70166  -0.66811
  Beta  occ. eigenvalues --   -0.66260  -0.62916  -0.60794  -0.59325  -0.56144
  Beta  occ. eigenvalues --   -0.53885  -0.53531
  Beta virt. eigenvalues --   -0.27498  -0.04375  -0.02313  -0.01167   0.00812
  Beta virt. eigenvalues --    0.02077   0.02399   0.03184   0.05527   0.06809
  Beta virt. eigenvalues --    0.07569   0.08170   0.09172   0.10991   0.13361

 Mulliken charges and spin densities:
               1          2
     1  N   -0.269083   0.593355
     2  C   -0.334767   0.037668
     3  C    0.089590   0.028843
     4  O   -0.466129   0.029458
     5  C    0.074152   0.020021
     6  O   -0.492081   0.003877
     7  C    0.057075   0.185850
     8  O   -0.397049   0.103032
     9  H    0.321622  -0.021434
    10  H    0.327017  -0.021320
    11  H    0.156651  -0.001889
    12  H    0.168946   0.014653
    13  H    0.358580  -0.000925
    14  H    0.159208   0.011530
    15  H    0.145483  -0.002266
    16  H    0.365724  -0.000280
    17  H    0.185982   0.001944
    18  H    0.179003   0.021746
    19  H    0.370076  -0.003863
 Sum of Mulliken charges =   1.00000   1.00000

 Dipole moment (field-independent basis, Debye):
    X=             -1.9154    Y=              0.9215    Z=              0.9071  Tot=              2.3110
  Exact polarizability:  68.486   3.599  62.706  -3.567  -4.232  61.436
 Approx polarizability:  68.234   3.909  63.412  -2.648  -4.517  67.384
                          Isotropic Fermi Contact Couplings
        Atom                 a.u.       MegaHertz       Gauss      10(-4) cm-1
     1  N(14)              0.17083      55.19639      19.69544      18.41153
     2  C(13)             -0.03447     -38.74825     -13.82634     -12.92503
     3  C(13)              0.01033      11.61067       4.14297       3.87290
     4  O(17)              0.01283      -7.77714      -2.77508      -2.59418
     5  C(13)              0.01193      13.40860       4.78452       4.47263
     6  O(17)             -0.00370       2.24444       0.80087       0.74867

                      1                      2                      3
                      A                      A                      A
 Frequencies --    110.6801               130.0052               168.1688
 Red. masses --      3.9520                 2.7778                 3.7107
 Frc consts  --      0.0285                 0.0277                 0.0618
 IR Inten    --      5.9132                10.6128                 2.1012

                      4                      5                      6
                      A                      A                      A
 Frequencies --    199.8513               253.1601               325.0132
 Red. masses --      4.1379                 3.6047                 3.3497
 Frc consts  --      0.0974                 0.1361                 0.2085
 IR Inten    --      7.4936                 4.1443                14.2109

                      7                      8                      9
                      A                      A                      A
 Frequencies --    329.1977               341.9828               357.6694
 Red. masses --      1.2690                 1.7898                 1.2948
 Frc consts  --      0.0810                 0.1233                 0.0976
 IR Inten    --     77.7211                72.1778               144.1363

                     10                     11                     12
                      A                      A                      A
 Frequencies --    378.5256               429.0566               459.6100
 Red. masses --      3.0210                 4.6503                 1.1247
 Frc consts  --      0.2550                 0.5044                 0.1400
 IR Inten    --     25.1958                 5.9280               100.6617

                     13                     14                     15
                      A                      A                      A
 Frequencies --    480.0382               547.8157               593.9423
 Red. masses --      2.0775                 4.3614                 1.1370
 Frc consts  --      0.2821                 0.7712                 0.2363
 IR Inten    --     57.4923               172.1371                32.4859

                     16                     17                     18
                      A                      A                      A
 Frequencies --    659.2011               689.5390               880.9766
 Red. masses --      3.2171                 1.3535                 3.7622
 Frc consts  --      0.8237                 0.3792                 1.7204
 IR Inten    --     50.8141                97.5194                21.9877

                     19                     20                     21
                      A                      A                      A
 Frequencies --    921.2383               942.5979              1010.8595
 Red. masses --      1.7290                 1.2755                 1.4546
 Frc consts  --      0.8646                 0.6677                 0.8757
 IR Inten    --     23.3916                 2.3532                62.7320

                     22                     23                     24
                      A                      A                      A
 Frequencies --   1050.3967              1146.6120              1170.1832
 Red. masses --      1.5558                 4.8676                 5.2289
 Frc consts  --      1.0114                 3.7705                 4.2186
 IR Inten    --     46.8636               118.4834                41.9715

                     25                     26                     27
                      A                      A                      A
 Frequencies --   1175.9553              1203.7922              1218.9798
 Red. masses --      1.0799                 1.4427                 1.1481
 Frc consts  --      0.8799                 1.2318                 1.0051
 IR Inten    --     29.3707                71.6257                52.6808

                     28                     29                     30
                      A                      A                      A
 Frequencies --   1236.9673              1256.7915              1274.6701
 Red. masses --      1.9283                 1.9477                 1.3361
 Frc consts  --      1.7383                 1.8126                 1.2791
 IR Inten    --     93.1290               108.3362                22.3524

                     31                     32                     33
                      A                      A                      A
 Frequencies --   1314.9587              1362.8610              1396.7710
 Red. masses --      1.5066                 1.5774                 1.2280
 Frc consts  --      1.5349                 1.7263                 1.4116
 IR Inten    --     39.6154                41.9920                 6.6390

                     34                     35                     36
                      A                      A                      A
 Frequencies --   1419.1376              1422.3668              1464.3484
 Red. masses --      1.2031                 1.3932                 1.5031
 Frc consts  --      1.4276                 1.6607                 1.8990
 IR Inten    --     44.1243                35.9256                 1.0026

                     37                     38                     39
                      A                      A                      A
 Frequencies --   1507.4716              1520.2846              1536.7600
 Red. masses --      1.1236                 1.1599                 1.0913
 Frc consts  --      1.5044                 1.5794                 1.5185
 IR Inten    --      2.7091                 0.4367                 6.1470

                     40                     41                     42
                      A                      A                      A
 Frequencies --   1564.0012              3024.8333              3065.5141
 Red. masses --      1.4228                 1.0602                 1.0601
 Frc consts  --      2.0505                 5.7151                 5.8697
 IR Inten    --     47.5088                15.0067                 8.7886

                     43                     44                     45
                      A                      A                      A
 Frequencies --   3082.8719              3085.6559              3133.3856
 Red. masses --      1.0712                 1.0927                 1.1126
 Frc consts  --      5.9985                 6.1300                 6.4361
 IR Inten    --      7.4924                 8.8074                 5.1399

                     46                     47                     48
                      A                      A                      A
 Frequencies --   3181.7609              3455.5502              3584.5273
 Red. masses --      1.1187                 1.0470                 1.1075
 Frc consts  --      6.6727                 7.3660                 8.3837
 IR Inten    --      1.6211               213.2207               176.0923

                     49                     50                     51
                      A                      A                      A
 Frequencies --   3728.2848              3743.8799              3770.4536
 Red. masses --      1.0670                 1.0663                 1.0673
 Frc consts  --      8.7381                 8.8057                 8.9398
 IR Inten    --    167.4414               129.5272               145.9540

 Optimization completed.
    -- Stationary point found.
 Normal termination of Gaussian 16 at Mon Jul 10 19:42:46 2023.
