 Gaussian 16, Revision B.01,
 Gaussian 16:  ES64L-G16RevB.01 20-Dec-2017

 --------------------------------------------------------------
 #T wB97XD//def2svpp Volume=tight Geom=AllCheckpoint Guess=Read
 --------------------------------------------------------------
 Structure from the checkpoint file:  "19.chk"
 -------
 Monomer
 -------
 Charge =  0 Multiplicity = 1

                         Standard orientation:
 ---------------------------------------------------------------------
 Center     Atomic      Atomic             Coordinates (Angstroms)
 Number     Number       Type             X           Y           Z
 ---------------------------------------------------------------------
      1          6           0       -0.414763    1.523910   -0.210448
      2          6           0       -0.405069    0.004353    0.008546
      3          6           0       -0.481203   -0.302773    1.508787
      4          6           0       -1.596091   -0.626643   -0.722115
      5          6           0        0.888569   -0.598219   -0.574211
      6          8           0        2.070059   -0.114979    0.012140
      7          1           0       -1.360539    1.967050    0.148172
      8          1           0       -0.312142    1.776323   -1.282486
      9          1           0        0.402853    2.019324    0.344017
     10          1           0       -1.376032    0.159287    1.963178
     11          1           0        0.412920    0.079314    2.029117
     12          1           0       -0.534158   -1.392038    1.686517
     13          1           0       -2.550881   -0.241643   -0.322051
     14          1           0       -1.600988   -1.725257   -0.602797
     15          1           0       -1.570451   -0.403068   -1.804327
     16          1           0        0.896928   -0.443179   -1.674926
     17          1           0        0.891092   -1.688121   -0.400524
     18          1           0        2.192266    0.808072   -0.244368
 ---------------------------------------------------------------------

 SCF Done:  E(RwB97XD) =  -272.673502330     A.U. after    1 cycles

 The electronic state is 1-A.
 Alpha  occ. eigenvalues --  -19.24735 -10.33153 -10.30526 -10.28670 -10.28340
 Alpha  occ. eigenvalues --  -10.27541  -1.11099  -0.91150  -0.78028  -0.77216
 Alpha  occ. eigenvalues --   -0.76007  -0.63658  -0.59032  -0.55158  -0.54346
 Alpha  occ. eigenvalues --   -0.51846  -0.49863  -0.46927  -0.46185  -0.44744
 Alpha  occ. eigenvalues --   -0.44276  -0.41664  -0.40922  -0.39458  -0.34745
 Alpha virt. eigenvalues --    0.12093   0.15139   0.17712   0.18184   0.19079
 Alpha virt. eigenvalues --    0.20301   0.20555   0.22762   0.23972   0.24678
 Alpha virt. eigenvalues --    0.26549   0.27155   0.27809   0.30038   0.31718

 Mulliken charges:
               1
     1  C   -0.306314
     2  C   -0.273499
     3  C   -0.265566
     4  C   -0.277580
     5  C    0.064626
     6  O   -0.483674
     7  H    0.121751
     8  H    0.113030
     9  H    0.110026
    10  H    0.110953
    11  H    0.125682
    12  H    0.110285
    13  H    0.117409
    14  H    0.116411
    15  H    0.112970
    16  H    0.086095
    17  H    0.099683
    18  H    0.317710
 Sum of Mulliken charges =   0.00000

 Dipole moment (field-independent basis, Debye):
    X=             -0.9398    Y=              1.0142    Z=             -0.8409  Tot=              1.6183
 Evaluate density.
 Using the total density.
 Monte-Carlo method of calculating molar volume:
 based on  0.001 e/bohr**3 density envelope.
 Number of points per bohr**3 =  100 CutOff= 1.00D-04
 Using the SCF density.
 There are      1757 points.  Will hold      1757 in memory.
 LenV=  1048356233 MDV=  1048576000.
 Box volume = 5424.849 fraction occupied=0.166
 Integrated density= 4.2250779291832885D+01 error=-7.7492207081671154D+00

 Normal termination of Gaussian 16 at Fri Sep 23 14:19:25 2022.
