 Gaussian 16, Revision B.01,
 Gaussian 16:  ES64L-G16RevB.01 20-Dec-2017

 ----------------------------------------------------------------------
 #T wB97XD/def2svpp opt=tight freq int(grid=ultrafine) scf=(verytight,q
 c) Volume=tight
 ----------------------------------------------------------------------
 -------
 Monomer
 -------
 Symbolic Z-matrix:
 Charge =  0 Multiplicity = 1

 SCF Done:  E(RwB97XD) =  -119.002934853     a.u. after    6 cycles
 Optimization completed.
    -- Stationary point found.
 Normal termination of Gaussian 16 at Mon Feb  6 10:22:23 2023.

 ---------------------------------------------------------------------
 #T Geom=AllCheck Guess=TCheck SCRF=Check GenChk RwB97XD/def2SVPP Freq
 ---------------------------------------------------------------------
 Structure from the checkpoint file:  "4.chk"
 -------
 Monomer
 -------
 Charge =  0 Multiplicity = 1

                         Standard orientation:
 ---------------------------------------------------------------------
 Center     Atomic      Atomic             Coordinates (Angstroms)
 Number     Number       Type             X           Y           Z
 ---------------------------------------------------------------------
      1          6           0        1.273842   -0.258800    0.000032
      2          6           0        0.000000    0.583527   -0.000026
      3          6           0       -1.273842   -0.258800   -0.000009
      4          1           0        2.177804    0.374472    0.000020
      5          1           0        1.319819   -0.910549   -0.891092
      6          1           0        1.319789   -0.910473    0.891213
      7          1           0        0.000014    1.248728   -0.882857
      8          1           0       -0.000014    1.248805    0.882747
      9          1           0       -2.177804    0.374472   -0.000053
     10          1           0       -1.319819   -0.910471    0.891172
     11          1           0       -1.319789   -0.910552   -0.891133
 ---------------------------------------------------------------------

 SCF Done:  E(RwB97XD) =  -119.002934853     a.u. after    1 cycles

 The electronic state is 1-A.
 Alpha  occ. eigenvalues --  -10.28702 -10.27861 -10.27860  -0.87081  -0.76700
 Alpha  occ. eigenvalues --   -0.66840  -0.54311  -0.52211  -0.48209  -0.46240
 Alpha  occ. eigenvalues --   -0.41934  -0.41681  -0.40625
 Alpha virt. eigenvalues --    0.14064   0.18914   0.18933   0.18988   0.21922
 Alpha virt. eigenvalues --    0.24022   0.24321   0.24909   0.29379   0.33530
 Alpha virt. eigenvalues --    0.48764   0.51410   0.52127   0.54592   0.55490

 Mulliken charges:
               1
     1  C   -0.334906
     2  C   -0.240535
     3  C   -0.334907
     4  H    0.120670
     5  H    0.113791
     6  H    0.113791
     7  H    0.106921
     8  H    0.106921
     9  H    0.120670
    10  H    0.113791
    11  H    0.113791
 Sum of Mulliken charges =  -0.00000

 Dipole moment (field-independent basis, Debye):
    X=              0.0000    Y=              0.0588    Z=             -0.0000  Tot=              0.0588
  Exact polarizability:  36.462   0.000  32.963   0.000  -0.000  31.901
 Approx polarizability:  32.735   0.000  32.919  -0.000   0.000  33.097
   1 Symmetry operations used in ECPInt.
 ECPInt:  NShTT=     595 NPrTT=    2409 LenC2=     596 LenP2D=    2157.
 LDataN:  DoStor=T MaxTD1= 6 Len=  172
 Calling FoFJK, ICntrl=    100127 FMM=F ISym2X=0 I1Cent= 0 IOpClX= 0 NMat=1 NMatS=1 NMatT=0.
 Full mass-weighted force constant matrix:
 Low frequencies ---  -25.6946  -12.6387   -5.9035   -0.0003    0.0002    0.0009
 Low frequencies ---  227.5420  285.5681  375.5028
 Diagonal vibrational polarizability:

                      1                      2                      3
                      A                      A                      A
 Frequencies --    227.5410               285.5681               375.5028
 Red. masses --      1.0278                 1.1385                 2.0554
 Frc consts  --      0.0314                 0.0547                 0.1708
 IR Inten    --      0.0000                 0.0067                 0.1247

                      4                      5                      6
                      A                      A                      A
 Frequencies --    761.3508               897.2440               921.6342
 Red. masses --      1.0798                 2.4243                 1.1027
 Frc consts  --      0.3688                 1.1499                 0.5519
 IR Inten    --      4.4023                 1.1866                 0.0000

                      7                      8                      9
                      A                      A                      A
 Frequencies --    944.5945              1090.6556              1188.4662
 Red. masses --      1.1879                 2.1895                 1.7918
 Frc consts  --      0.6245                 1.5345                 1.4911
 IR Inten    --      2.6126                 0.3350                 1.8691

                     10                     11                     12
                      A                      A                      A
 Frequencies --   1220.9244              1324.9267              1376.8720
 Red. masses --      1.6647                 1.1257                 1.3256
 Frc consts  --      1.4620                 1.1643                 1.4807
 IR Inten    --      0.5835                 0.0000                 1.1882

                     13                     14                     15
                      A                      A                      A
 Frequencies --   1426.4184              1428.0744              1485.2444
 Red. masses --      1.4345                 1.2492                 1.0348
 Frc consts  --      1.7196                 1.5010                 1.3450
 IR Inten    --      9.0197                 3.1377                 0.0000

                     16                     17                     18
                      A                      A                      A
 Frequencies --   1488.8862              1493.8522              1502.2910
 Red. masses --      1.0425                 1.0644                 1.0392
 Frc consts  --      1.3616                 1.3995                 1.3818
 IR Inten    --      0.0919                 2.2683                17.5125

                     19                     20                     21
                      A                      A                      A
 Frequencies --   1506.5704              3024.6309              3026.5696
 Red. masses --      1.0872                 1.0378                 1.0381
 Frc consts  --      1.4540                 5.5938                 5.6025
 IR Inten    --      7.3339                33.8813                21.9906

                     22                     23                     24
                      A                      A                      A
 Frequencies --   3038.0257              3080.5361              3112.3292
 Red. masses --      1.0638                 1.1045                 1.1052
 Frc consts  --      5.7846                 6.1752                 6.3074
 IR Inten    --     26.5706                 3.9047                 0.0000

                     25                     26                     27
                      A                      A                      A
 Frequencies --   3120.4541              3122.7197              3124.2353
 Red. masses --      1.1049                 1.1049                 1.1038
 Frc consts  --      6.3389                 6.3478                 6.3480
 IR Inten    --     76.7585                20.2015                36.7347

 Optimization completed.
    -- Stationary point found.
 Normal termination of Gaussian 16 at Mon Feb  6 10:22:38 2023.
