 Gaussian 16, Revision B.01,
 Gaussian 16:  ES64L-G16RevB.01 20-Dec-2017

 ----------------------------------------------------------------------
 #T wB97XD/def2svpp opt=tight freq int(grid=ultrafine) scf=(verytight,q
 c) Volume=tight
 ----------------------------------------------------------------------
 -----
 Dimer
 -----
 Symbolic Z-matrix:
 Charge =  0 Multiplicity = 1

 SCF Done:  E(RwB97XD) =  -709.255269677     a.u. after    6 cycles
 SCF Done:  E(RwB97XD) =  -709.260428900     a.u. after   11 cycles
 SCF Done:  E(RwB97XD) =  -709.243493029     a.u. after   15 cycles
 SCF Done:  E(RwB97XD) =  -709.257470096     a.u. after   13 cycles
 SCF Done:  E(RwB97XD) =  -709.262204841     a.u. after    3 cycles
 SCF Done:  E(RwB97XD) =  -709.262561425     a.u. after   11 cycles
 SCF Done:  E(RwB97XD) =  -709.262967936     a.u. after    9 cycles
 SCF Done:  E(RwB97XD) =  -709.262966145     a.u. after    8 cycles
 SCF Done:  E(RwB97XD) =  -709.263226580     a.u. after    7 cycles
 SCF Done:  E(RwB97XD) =  -709.263247805     a.u. after    5 cycles
 SCF Done:  E(RwB97XD) =  -709.263326845     a.u. after    2 cycles
 SCF Done:  E(RwB97XD) =  -709.263326976     a.u. after    2 cycles
 SCF Done:  E(RwB97XD) =  -709.263327060     a.u. after    2 cycles
 SCF Done:  E(RwB97XD) =  -709.263327126     a.u. after    2 cycles
 SCF Done:  E(RwB97XD) =  -709.263327129     a.u. after    2 cycles
 SCF Done:  E(RwB97XD) =  -709.263327128     a.u. after    2 cycles
 SCF Done:  E(RwB97XD) =  -709.263327126     a.u. after    2 cycles
 SCF Done:  E(RwB97XD) =  -709.263327126     a.u. after    2 cycles
 SCF Done:  E(RwB97XD) =  -709.263327125     a.u. after    2 cycles
 Optimization completed.
    -- Stationary point found.
 Normal termination of Gaussian 16 at Sun Feb  5 19:02:16 2023.

 ---------------------------------------------------------------------
 #T Geom=AllCheck Guess=TCheck SCRF=Check GenChk RwB97XD/def2SVPP Freq
 ---------------------------------------------------------------------
 Structure from the checkpoint file:  "0.chk"
 -----
 Dimer
 -----
 Charge =  0 Multiplicity = 1

                         Standard orientation:
 ---------------------------------------------------------------------
 Center     Atomic      Atomic             Coordinates (Angstroms)
 Number     Number       Type             X           Y           Z
 ---------------------------------------------------------------------
      1          6           0       -2.506933   -1.757415   -1.760691
      2          6           0       -1.851446   -0.602256   -1.008554
      3          6           0       -2.629222    0.000352    0.185559
      4          6           0       -4.009470    0.537254   -0.263951
      5          6           0       -4.008758    1.628171   -1.332619
      6          6           0       -2.903418   -1.076554    1.263744
      7          6           0       -1.688347   -1.783863    1.861012
      8          6           0       -1.746626    1.139358    0.752677
      9          6           0       -2.296383    1.915648    1.946977
     10          1           0       -2.703317   -2.621586   -1.102764
     11          1           0       -1.843575   -2.106763   -2.570810
     12          1           0       -3.464641   -1.463000   -2.223689
     13          1           0       -1.626186    0.207926   -1.725986
     14          1           0       -0.866017   -0.937015   -0.643707
     15          1           0       -4.546105    0.911617    0.626724
     16          1           0       -4.614845   -0.314025   -0.624873
     17          1           0       -3.474429    2.534453   -0.999026
     18          1           0       -5.043031    1.927771   -1.574374
     19          1           0       -3.538261    1.287844   -2.271268
     20          1           0       -3.580234   -1.837125    0.833800
     21          1           0       -3.481663   -0.611331    2.082459
     22          1           0       -2.008426   -2.513579    2.624640
     23          1           0       -0.995222   -1.078011    2.350305
     24          1           0       -1.115392   -2.339413    1.098256
     25          1           0       -1.527089    1.851101   -0.063850
     26          1           0       -0.764744    0.716696    1.026702
     27          1           0       -2.470605    1.264104    2.820696
     28          1           0       -3.247831    2.423236    1.711577
     29          1           0       -1.578155    2.693904    2.257731
     30          6           0        2.506974   -1.757019    1.761075
     31          6           0        1.851453   -0.602051    1.008673
     32          6           0        2.629221    0.000323   -0.185562
     33          6           0        4.009458    0.537340    0.263841
     34          6           0        4.008727    1.628458    1.332304
     35          6           0        2.903437   -1.076803   -1.263523
     36          6           0        1.688379   -1.784237   -1.860668
     37          6           0        1.746606    1.139197   -0.752916
     38          6           0        2.296346    1.915248   -1.947380
     39          1           0        2.703381   -2.621338    1.103349
     40          1           0        1.843626   -2.106199    2.571274
     41          1           0        3.464673   -1.462471    2.224006
     42          1           0        1.626155    0.208280    1.725924
     43          1           0        0.866040   -0.936930    0.643894
     44          1           0        4.546081    0.911548   -0.626907
     45          1           0        4.614854   -0.313857    0.624920
     46          1           0        3.474368    2.534661    0.998546
     47          1           0        5.042995    1.928134    1.573989
     48          1           0        3.538252    1.288295    2.271023
     49          1           0        3.580247   -1.837284   -0.833412
     50          1           0        3.481695   -0.611746   -2.082324
     51          1           0        0.995267   -1.078487   -2.350129
     52          1           0        1.115403   -2.339621   -1.097807
     53          1           0        2.008474   -2.514118   -2.624131
     54          1           0        1.527062    1.851107    0.063462
     55          1           0        0.764730    0.716462   -1.026849
     56          1           0        1.578100    2.693423   -2.258297
     57          1           0        2.470582    1.263525   -2.820962
     58          1           0        3.247782    2.422908   -1.712086
 ---------------------------------------------------------------------

 SCF Done:  E(RwB97XD) =  -709.263327125     a.u. after    1 cycles

 The electronic state is 1-A.
 Alpha  occ. eigenvalues --  -10.29866 -10.29865 -10.28196 -10.28196 -10.28162
 Alpha  occ. eigenvalues --  -10.28160 -10.28145 -10.28145 -10.28031 -10.28030
 Alpha  occ. eigenvalues --  -10.27855 -10.27853 -10.27806 -10.27806 -10.27776
 Alpha  occ. eigenvalues --  -10.27776 -10.27741 -10.27741  -0.92660  -0.92487
 Alpha  occ. eigenvalues --   -0.84022  -0.83977  -0.83861  -0.83830  -0.82738
 Alpha  occ. eigenvalues --   -0.82669  -0.76477  -0.76381  -0.72914  -0.72290
 Alpha  occ. eigenvalues --   -0.68028  -0.68016  -0.67869  -0.67852  -0.60186
 Alpha  occ. eigenvalues --   -0.59697  -0.56823  -0.56429  -0.56315  -0.56004
 Alpha  occ. eigenvalues --   -0.54394  -0.54213  -0.49813  -0.49542  -0.49019
 Alpha  occ. eigenvalues --   -0.48970  -0.48960  -0.48844  -0.48804  -0.48510
 Alpha  occ. eigenvalues --   -0.48342  -0.48328  -0.47651  -0.47497  -0.46378
 Alpha  occ. eigenvalues --   -0.45561  -0.43786  -0.43767  -0.43676  -0.43649
 Alpha  occ. eigenvalues --   -0.42684  -0.42452  -0.42393  -0.41975  -0.41926
 Alpha  occ. eigenvalues --   -0.41689  -0.40049  -0.39974  -0.38161  -0.37902
 Alpha  occ. eigenvalues --   -0.37900  -0.37598  -0.37380  -0.36625
 Alpha virt. eigenvalues --    0.11173   0.12999   0.13931   0.14225   0.15588
 Alpha virt. eigenvalues --    0.16114   0.16277   0.17058   0.17428   0.17766
 Alpha virt. eigenvalues --    0.17905   0.18099   0.18913   0.19896   0.19934

 Mulliken charges:
               1
     1  C   -0.308293
     2  C   -0.243717
     3  C   -0.217231
     4  C   -0.186326
     5  C   -0.317910
     6  C   -0.186984
     7  C   -0.333799
     8  C   -0.219213
     9  C   -0.311402
    10  H    0.118565
    11  H    0.119712
    12  H    0.119956
    13  H    0.116333
    14  H    0.130790
    15  H    0.101369
    16  H    0.100993
    17  H    0.120527
    18  H    0.118243
    19  H    0.120275
    20  H    0.101312
    21  H    0.101698
    22  H    0.118784
    23  H    0.131679
    24  H    0.128154
    25  H    0.106340
    26  H    0.114958
    27  H    0.118621
    28  H    0.119360
    29  H    0.117209
    30  C   -0.308294
    31  C   -0.243717
    32  C   -0.217229
    33  C   -0.186326
    34  C   -0.317910
    35  C   -0.186982
    36  C   -0.333798
    37  C   -0.219215
    38  C   -0.311401
    39  H    0.118565
    40  H    0.119711
    41  H    0.119956
    42  H    0.116334
    43  H    0.130787
    44  H    0.101368
    45  H    0.100993
    46  H    0.120527
    47  H    0.118243
    48  H    0.120275
    49  H    0.101312
    50  H    0.101698
    51  H    0.131677
    52  H    0.128153
    53  H    0.118784
    54  H    0.106340
    55  H    0.114959
    56  H    0.117209
    57  H    0.118621
    58  H    0.119359
 Sum of Mulliken charges =  -0.00000

 Dipole moment (field-independent basis, Debye):
    X=             -0.0000    Y=             -0.0590    Z=              0.0000  Tot=              0.0590
  Exact polarizability: 204.062   0.000 187.846   4.157  -0.000 186.985
 Approx polarizability: 204.083   0.000 201.886   0.257  -0.000 201.912
   1 Symmetry operations used in ECPInt.
 ECPInt:  NShTT=   17766 NPrTT=   71230 LenC2=   16955 LenP2D=   47059.
 LDataN:  DoStor=T MaxTD1= 6 Len=  172
 Calling FoFJK, ICntrl=    100127 FMM=F ISym2X=0 I1Cent= 0 IOpClX= 0 NMat=1 NMatS=1 NMatT=0.
 Full mass-weighted force constant matrix:
 Low frequencies ---   -3.0615   -0.8359   -0.0009   -0.0005   -0.0002    5.0260
 Low frequencies ---   14.8901   31.6401   37.0365
 Diagonal vibrational polarizability:

                      1                      2                      3
                      A                      A                      A
 Frequencies --     14.6145                31.5078                36.8496
 Red. masses --      3.1903                 3.0571                 3.0112
 Frc consts  --      0.0004                 0.0018                 0.0024
 IR Inten    --      0.0021                 0.0000                 0.0111

                      4                      5                      6
                      A                      A                      A
 Frequencies --     44.3573                56.5616                58.1307
 Red. masses --      3.4654                 2.3617                 2.4100
 Frc consts  --      0.0040                 0.0045                 0.0048
 IR Inten    --      0.0002                 0.0020                 0.0009

                      7                      8                      9
                      A                      A                      A
 Frequencies --     63.4146                72.3411                96.3249
 Red. masses --      3.3780                 3.9441                 1.9869
 Frc consts  --      0.0080                 0.0122                 0.0109
 IR Inten    --      0.0709                 0.0138                 0.0029

                     10                     11                     12
                      A                      A                      A
 Frequencies --     99.9604               101.7505               104.5892
 Red. masses --      2.0955                 1.9866                 1.8938
 Frc consts  --      0.0123                 0.0121                 0.0122
 IR Inten    --      0.0013                 0.0004                 0.0001

                     13                     14                     15
                      A                      A                      A
 Frequencies --    132.7369               137.9312               182.2247
 Red. masses --      1.3487                 1.3242                 2.7987
 Frc consts  --      0.0140                 0.0148                 0.0548
 IR Inten    --      0.0222                 0.0021                 0.0255

                     16                     17                     18
                      A                      A                      A
 Frequencies --    184.8031               217.9890               218.1030
 Red. masses --      2.7632                 1.1609                 1.1658
 Frc consts  --      0.0556                 0.0325                 0.0327
 IR Inten    --      0.0002                 0.0250                 0.0390

                     19                     20                     21
                      A                      A                      A
 Frequencies --    230.1519               230.2737               252.7161
 Red. masses --      1.0854                 1.0855                 1.2175
 Frc consts  --      0.0339                 0.0339                 0.0458
 IR Inten    --      0.0130                 0.0134                 0.0646

                     22                     23                     24
                      A                      A                      A
 Frequencies --    255.0627               275.2610               280.9889
 Red. masses --      1.2368                 2.2352                 2.1549
 Frc consts  --      0.0474                 0.0998                 0.1002
 IR Inten    --      0.1747                 0.0174                 0.2680

                     25                     26                     27
                      A                      A                      A
 Frequencies --    326.3237               326.8137               340.9208
 Red. masses --      1.4617                 1.5157                 2.0359
 Frc consts  --      0.0917                 0.0954                 0.1394
 IR Inten    --      0.0094                 0.0083                 0.0001

                     28                     29                     30
                      A                      A                      A
 Frequencies --    341.7000               365.6043               367.8987
 Red. masses --      2.0214                 1.9562                 2.2331
 Frc consts  --      0.1391                 0.1541                 0.1781
 IR Inten    --      0.0141                 0.0232                 0.0239

                     31                     32                     33
                      A                      A                      A
 Frequencies --    369.7631               375.4613               405.6278
 Red. masses --      2.3611                 1.9348                 3.1865
 Frc consts  --      0.1902                 0.1607                 0.3089
 IR Inten    --      0.1349                 0.0074                 0.0200

                     34                     35                     36
                      A                      A                      A
 Frequencies --    407.9025               417.4597               417.6982
 Red. masses --      3.2141                 3.4999                 3.4951
 Frc consts  --      0.3151                 0.3594                 0.3593
 IR Inten    --      0.0057                 0.6448                 0.0378

                     37                     38                     39
                      A                      A                      A
 Frequencies --    524.7306               525.0851               529.7528
 Red. masses --      2.0787                 2.0802                 2.0811
 Frc consts  --      0.3372                 0.3379                 0.3441
 IR Inten    --      1.2943                 0.7899                 0.5099

                     40                     41                     42
                      A                      A                      A
 Frequencies --    532.7904               695.4791               697.1937
 Red. masses --      2.0943                 2.5745                 2.5630
 Frc consts  --      0.3503                 0.7337                 0.7340
 IR Inten    --      0.2773                 0.0418                 0.0331

                     43                     44                     45
                      A                      A                      A
 Frequencies --    761.3207               761.4156               784.8739
 Red. masses --      1.1355                 1.1324                 1.3482
 Frc consts  --      0.3878                 0.3868                 0.4893
 IR Inten    --      0.0299                 0.1177                 6.5234

                     46                     47                     48
                      A                      A                      A
 Frequencies --    785.3389               797.2345               798.6722
 Red. masses --      1.3488                 1.2862                 1.3138
 Frc consts  --      0.4901                 0.4816                 0.4938
 IR Inten    --      4.7299                 7.4562                 3.3421

                     49                     50                     51
                      A                      A                      A
 Frequencies --    817.9259               819.5643               931.1983
 Red. masses --      1.1238                 1.1248                 1.8725
 Frc consts  --      0.4430                 0.4451                 0.9567
 IR Inten    --      0.0748                 0.2595                 6.7565

                     52                     53                     54
                      A                      A                      A
 Frequencies --    931.6451               932.2214               932.3991
 Red. masses --      1.8248                 1.8471                 1.8453
 Frc consts  --      0.9332                 0.9458                 0.9452
 IR Inten    --      0.5514                 1.5323                 5.8131

                     55                     56                     57
                      A                      A                      A
 Frequencies --    944.4669               944.8113              1047.5527
 Red. masses --      1.4307                 1.4294                 1.6028
 Frc consts  --      0.7519                 0.7518                 1.0363
 IR Inten    --     22.7382                 0.9437                 2.5620

                     58                     59                     60
                      A                      A                      A
 Frequencies --   1047.6685              1049.9823              1050.2513
 Red. masses --      1.6161                 1.5986                 1.5862
 Frc consts  --      1.0451                 1.0384                 1.0309
 IR Inten    --      1.6465                 0.2029                 0.7360

                     61                     62                     63
                      A                      A                      A
 Frequencies --   1052.3704              1052.5531              1058.9012
 Red. masses --      1.6108                 1.6063                 1.2985
 Frc consts  --      1.0511                 1.0485                 0.8578
 IR Inten    --      0.0025                 0.1610                 0.1933

                     64                     65                     66
                      A                      A                      A
 Frequencies --   1060.1305              1069.9293              1070.0963
 Red. masses --      1.2863                 1.8996                 1.8907
 Frc consts  --      0.8518                 1.2812                 1.2756
 IR Inten    --      0.1405                 1.2228                 1.8135

                     67                     68                     69
                      A                      A                      A
 Frequencies --   1073.4332              1074.0783              1103.3515
 Red. masses --      1.8685                 1.8764                 2.8277
 Frc consts  --      1.2685                 1.2754                 2.0282
 IR Inten    --      1.6062                 1.7831                 1.0977

                     70                     71                     72
                      A                      A                      A
 Frequencies --   1106.0404              1126.3643              1127.5830
 Red. masses --      2.8876                 2.3088                 2.3479
 Frc consts  --      2.0813                 1.7259                 1.7588
 IR Inten    --      0.0087                 0.1446                 0.0295

                     73                     74                     75
                      A                      A                      A
 Frequencies --   1137.7002              1137.8956              1216.0967
 Red. masses --      1.5204                 1.5202                 1.9671
 Frc consts  --      1.1595                 1.1598                 1.7140
 IR Inten    --      0.0215                 0.1743                 1.4703

                     76                     77                     78
                      A                      A                      A
 Frequencies --   1216.2552              1216.9286              1217.2317
 Red. masses --      1.9996                 2.0017                 2.0013
 Frc consts  --      1.7428                 1.7465                 1.7471
 IR Inten    --      2.5105                 2.7004                 1.5003

                     79                     80                     81
                      A                      A                      A
 Frequencies --   1280.6179              1280.8725              1295.3926
 Red. masses --      4.8904                 4.8872                 1.1651
 Frc consts  --      4.7254                 4.7241                 1.1519
 IR Inten    --      3.5003                 0.1508                 0.0300

                     82                     83                     84
                      A                      A                      A
 Frequencies --   1296.7917              1308.6023              1308.7292
 Red. masses --      1.1636                 1.1149                 1.1157
 Frc consts  --      1.1529                 1.1248                 1.1259
 IR Inten    --      0.2021                 0.0124                 0.1504

                     85                     86                     87
                      A                      A                      A
 Frequencies --   1334.0382              1335.0714              1335.3219
 Red. masses --      1.1989                 1.1974                 1.1965
 Frc consts  --      1.2571                 1.2575                 1.2570
 IR Inten    --      3.7690                 3.5584                 4.9222

                     88                     89                     90
                      A                      A                      A
 Frequencies --   1338.8295              1378.2454              1378.6787
 Red. masses --      1.2054                 1.2916                 1.2872
 Frc consts  --      1.2730                 1.4456                 1.4415
 IR Inten    --      0.6585                 1.1263                 0.2182

                     91                     92                     93
                      A                      A                      A
 Frequencies --   1402.1823              1402.7590              1406.4120
 Red. masses --      1.3017                 1.3045                 1.3925
 Frc consts  --      1.5078                 1.5123                 1.6228
 IR Inten    --      0.2928                 0.3598                 0.4232

                     94                     95                     96
                      A                      A                      A
 Frequencies --   1406.9943              1407.8463              1408.2736
 Red. masses --      1.3723                 1.3652                 1.3998
 Frc consts  --      1.6006                 1.5943                 1.6356
 IR Inten    --      4.4607                 4.8909                 2.4073

                     97                     98                     99
                      A                      A                      A
 Frequencies --   1424.3414              1425.3049              1426.8193
 Red. masses --      1.4003                 1.4136                 1.4318
 Frc consts  --      1.6737                 1.6920                 1.7173
 IR Inten    --      0.9276                 5.0443                 5.5221

                    100                    101                    102
                      A                      A                      A
 Frequencies --   1427.6629              1430.4068              1430.6818
 Red. masses --      1.4651                 1.4539                 1.4534
 Frc consts  --      1.7595                 1.7527                 1.7528
 IR Inten    --      6.5031                 8.9148                 3.9005

                    103                    104                    105
                      A                      A                      A
 Frequencies --   1432.8105              1435.8489              1472.3713
 Red. masses --      1.3844                 1.3606                 1.0656
 Frc consts  --      1.6745                 1.6528                 1.3611
 IR Inten    --      2.2745                 0.0037                 0.4349

                    106                    107                    108
                      A                      A                      A
 Frequencies --   1472.9320              1477.0192              1480.9455
 Red. masses --      1.0677                 1.0589                 1.0510
 Frc consts  --      1.3647                 1.3611                 1.3580
 IR Inten    --      2.1204                 5.5617                 4.3312

                    109                    110                    111
                      A                      A                      A
 Frequencies --   1490.3830              1491.2221              1491.4607
 Red. masses --      1.0492                 1.0497                 1.0614
 Frc consts  --      1.3731                 1.3753                 1.3911
 IR Inten    --      4.3106                 1.8067                35.2270

                    112                    113                    114
                      A                      A                      A
 Frequencies --   1491.5482              1493.9124              1495.2623
 Red. masses --      1.0598                 1.0509                 1.0507
 Frc consts  --      1.3891                 1.3818                 1.3841
 IR Inten    --      5.3897                 9.0402                 0.5970

                    115                    116                    117
                      A                      A                      A
 Frequencies --   1496.5733              1496.7514              1497.7186
 Red. masses --      1.0510                 1.0522                 1.0543
 Frc consts  --      1.3869                 1.3888                 1.3933
 IR Inten    --      0.2752                 0.0021                 1.1050

                    118                    119                    120
                      A                      A                      A
 Frequencies --   1497.8357              1499.7973              1500.6861
 Red. masses --      1.0480                 1.0423                 1.0447
 Frc consts  --      1.3853                 1.3814                 1.3862
 IR Inten    --      3.1436                 2.9746                 0.0039

                    121                    122                    123
                      A                      A                      A
 Frequencies --   1503.0814              1504.9567              1511.0906
 Red. masses --      1.0577                 1.0586                 1.0667
 Frc consts  --      1.4079                 1.4126                 1.4351
 IR Inten    --     18.2351                 8.7422                31.8687

                    124                    125                    126
                      A                      A                      A
 Frequencies --   1511.2890              1515.4040              1520.3161
 Red. masses --      1.0667                 1.0593                 1.0784
 Frc consts  --      1.4354                 1.4332                 1.4686
 IR Inten    --      0.7788                10.1807                 0.0723

                    127                    128                    129
                      A                      A                      A
 Frequencies --   1524.9032              1526.1242              3032.6400
 Red. masses --      1.0744                 1.0643                 1.0398
 Frc consts  --      1.4720                 1.4605                 5.6344
 IR Inten    --     15.4398                 9.5149                 8.1815

                    130                    131                    132
                      A                      A                      A
 Frequencies --   3032.7952              3033.5273              3033.6296
 Red. masses --      1.0398                 1.0385                 1.0389
 Frc consts  --      5.6347                 5.6307                 5.6329
 IR Inten    --      4.1467                36.9595                25.2934

                    133                    134                    135
                      A                      A                      A
 Frequencies --   3034.3387              3034.4923              3035.1730
 Red. masses --      1.0396                 1.0400                 1.0398
 Frc consts  --      5.6394                 5.6421                 5.6435
 IR Inten    --     40.9479                36.6226                 0.4771

                    136                    137                    138
                      A                      A                      A
 Frequencies --   3035.4498              3039.1233              3039.1302
 Red. masses --      1.0397                 1.0622                 1.0623
 Frc consts  --      5.6442                 5.7805                 5.7811
 IR Inten    --      8.6132                 0.9745                 0.0455

                    139                    140                    141
                      A                      A                      A
 Frequencies --   3045.5259              3046.0882              3048.3325
 Red. masses --      1.0613                 1.0611                 1.0683
 Frc consts  --      5.8000                 5.8008                 5.8486
 IR Inten    --    139.4681                11.3685                 1.2716

                    142                    143                    144
                      A                      A                      A
 Frequencies --   3049.4759              3055.3957              3057.5384
 Red. masses --      1.0680                 1.0660                 1.0677
 Frc consts  --      5.8517                 5.8632                 5.8807
 IR Inten    --      3.6765                47.7599                15.5574

                    145                    146                    147
                      A                      A                      A
 Frequencies --   3079.9034              3079.9548              3086.5583
 Red. masses --      1.1037                 1.1037                 1.1024
 Frc consts  --      6.1685                 6.1686                 6.1877
 IR Inten    --      0.0337                 0.2077                38.6065

                    148                    149                    150
                      A                      A                      A
 Frequencies --   3086.5765              3101.1289              3102.3278
 Red. masses --      1.1024                 1.0984                 1.0989
 Frc consts  --      6.1878                 6.2240                 6.2315
 IR Inten    --     38.5543                 2.6273                 3.8543

                    151                    152                    153
                      A                      A                      A
 Frequencies --   3105.5063              3110.1028              3121.6144
 Red. masses --      1.0982                 1.0981                 1.1039
 Frc consts  --      6.2399                 6.2582                 6.3375
 IR Inten    --     17.0243                 5.7075                17.0473

                    154                    155                    156
                      A                      A                      A
 Frequencies --   3121.6255              3122.3664              3122.4415
 Red. masses --      1.1039                 1.1036                 1.1035
 Frc consts  --      6.3380                 6.3393                 6.3391
 IR Inten    --      0.6391                13.0533                 2.9901

                    157                    158                    159
                      A                      A                      A
 Frequencies --   3122.8367              3123.2881              3123.7992
 Red. masses --      1.1033                 1.1031                 1.1034
 Frc consts  --      6.3393                 6.3402                 6.3439
 IR Inten    --     52.2372                22.5839               122.4494

                    160                    161                    162
                      A                      A                      A
 Frequencies --   3124.1057              3126.4939              3126.6550
 Red. masses --      1.1029                 1.1045                 1.1045
 Frc consts  --      6.3422                 6.3608                 6.3617
 IR Inten    --      6.0312                 1.9354                 2.3303

                    163                    164                    165
                      A                      A                      A
 Frequencies --   3129.7361              3129.8349              3130.7620
 Red. masses --      1.1041                 1.1042                 1.1039
 Frc consts  --      6.3721                 6.3728                 6.3752
 IR Inten    --     12.8341                63.7247               113.8563

                    166                    167                    168
                      A                      A                      A
 Frequencies --   3132.2301              3132.4353              3132.9161
 Red. masses --      1.1033                 1.1036                 1.1022
 Frc consts  --      6.3773                 6.3798                 6.3738
 IR Inten    --      2.6439                11.4085                33.2822

                           ! Non-Optimized Parameters !
 Normal termination of Gaussian 16 at Sun Feb  5 19:37:07 2023.
