 Gaussian 16, Revision B.01,
 Gaussian 16:  ES64L-G16RevB.01 20-Dec-2017

 ----------------------------------------------------------------------
 #T wB97XD/def2svpp opt=tight freq int(grid=ultrafine) scf=(verytight,q
 c) Volume=tight
 ----------------------------------------------------------------------
 -------
 Monomer
 -------
 Symbolic Z-matrix:
 Charge =  0 Multiplicity = 1

 SCF Done:  E(RwB97XD) =  -2996.24451224     a.u. after    7 cycles
 Optimization completed.
    -- Stationary point found.
 Normal termination of Gaussian 16 at Mon Feb  6 10:23:17 2023.

 ---------------------------------------------------------------------
 #T Geom=AllCheck Guess=TCheck SCRF=Check GenChk RwB97XD/def2SVPP Freq
 ---------------------------------------------------------------------
 Structure from the checkpoint file:  "20.chk"
 -------
 Monomer
 -------
 Charge =  0 Multiplicity = 1

                         Standard orientation:
 ---------------------------------------------------------------------
 Center     Atomic      Atomic             Coordinates (Angstroms)
 Number     Number       Type             X           Y           Z
 ---------------------------------------------------------------------
      1          8           0        2.955012    0.971201   -0.074116
      2          6           0        1.636719    1.457893   -0.005361
      3          6           0        0.565137    0.336586   -0.010491
      4          6           0        0.727283   -0.536163   -1.274018
      5          8           0        1.948112   -1.239822   -1.310294
      6          6           0        0.709668   -0.522847    1.264595
      7          8           0        2.001377   -1.073041    1.415923
      8          6           0       -0.783813    1.057517   -0.028600
      9         35           0       -2.356389   -0.096362    0.004813
     10          1           0        3.061252    0.367418    0.687551
     11          1           0        1.497005    2.108723   -0.886115
     12          1           0        1.498668    2.089574    0.896900
     13          1           0        0.613399    0.103667   -2.174252
     14          1           0       -0.072411   -1.293510   -1.307668
     15          1           0        2.655562   -0.569175   -1.266198
     16          1           0       -0.056715   -1.321073    1.263388
     17          1           0        0.530026    0.104346    2.155286
     18          1           0        2.156297   -1.626482    0.626953
     19          1           0       -0.888697    1.666873   -0.938884
     20          1           0       -0.886754    1.717667    0.845734
 ---------------------------------------------------------------------

 SCF Done:  E(RwB97XD) =  -2996.24451224     a.u. after    1 cycles

 The electronic state is 1-A.
 Alpha  occ. eigenvalues -- -483.06079 -62.64293 -56.45065 -56.44702 -56.44695
 Alpha  occ. eigenvalues --  -19.26658 -19.26562 -19.26368 -10.36596 -10.36013
 Alpha  occ. eigenvalues --  -10.35320 -10.35245 -10.33295  -8.81237  -6.63789
 Alpha  occ. eigenvalues --   -6.62470  -6.62444  -2.74151  -2.73783  -2.73761
 Alpha  occ. eigenvalues --   -2.72710  -2.72710  -1.15016  -1.11919  -1.11765
 Alpha  occ. eigenvalues --   -0.95136  -0.87993  -0.78486  -0.78003  -0.76100
 Alpha  occ. eigenvalues --   -0.68359  -0.63452  -0.63093  -0.58857  -0.56196
 Alpha  occ. eigenvalues --   -0.55338  -0.54662  -0.52600  -0.50624  -0.50210
 Alpha  occ. eigenvalues --   -0.49273  -0.47728  -0.44658  -0.44500  -0.43079
 Alpha  occ. eigenvalues --   -0.38788  -0.36913  -0.36732  -0.35632  -0.35310
 Alpha virt. eigenvalues --    0.06572   0.11862   0.13743   0.14843   0.17812
 Alpha virt. eigenvalues --    0.19228   0.19522   0.19892   0.20811   0.22367
 Alpha virt. eigenvalues --    0.22563   0.24158   0.25229   0.27901   0.29604

 Mulliken charges:
               1
     1  O   -0.510203
     2  C    0.076329
     3  C   -0.374077
     4  C    0.079410
     5  O   -0.513837
     6  C    0.079073
     7  O   -0.517016
     8  C   -0.203747
     9  Br  -0.107180
    10  H    0.332796
    11  H    0.110349
    12  H    0.102963
    13  H    0.099319
    14  H    0.126449
    15  H    0.330092
    16  H    0.122575
    17  H    0.108401
    18  H    0.332827
    19  H    0.162595
    20  H    0.162882
 Sum of Mulliken charges =  -0.00000

 Dipole moment (field-independent basis, Debye):
    X=             -0.6865    Y=              1.7622    Z=             -0.0151  Tot=              1.8912
  Exact polarizability:  90.060   4.083  71.462  -0.147  -0.120  67.661
 Approx polarizability:  95.031   5.064  83.031  -0.212  -0.162  77.160
   1 Symmetry operations used in ECPInt.
 ECPInt:  NShTT=    3403 NPrTT=   14712 LenC2=    3319 LenP2D=   11009.
 LDataN:  DoStor=T MaxTD1= 6 Len=  172
 Calling FoFJK, ICntrl=    100127 FMM=F ISym2X=0 I1Cent= 0 IOpClX= 0 NMat=1 NMatS=1 NMatT=0.
 Full mass-weighted force constant matrix:
 Low frequencies ---   -7.9230   -4.8982    0.0092    0.0105    0.0129    6.1523
 Low frequencies ---   84.7925  133.7736  146.7173
 Diagonal vibrational polarizability:

                      1                      2                      3
                      A                      A                      A
 Frequencies --     84.7903               133.7714               146.7142
 Red. masses --      4.0796                 6.8843                 2.4598
 Frc consts  --      0.0173                 0.0726                 0.0312
 IR Inten    --      1.7558                 0.4245                 8.6893

                      4                      5                      6
                      A                      A                      A
 Frequencies --    209.7989               213.0239               240.4249
 Red. masses --      4.8909                 4.1247                 5.1997
 Frc consts  --      0.1268                 0.1103                 0.1771
 IR Inten    --     12.5145                10.1461                 2.5352

                      7                      8                      9
                      A                      A                      A
 Frequencies --    269.3225               299.9254               344.4632
 Red. masses --      2.6378                 5.4808                 3.7432
 Frc consts  --      0.1127                 0.2905                 0.2617
 IR Inten    --      2.7755                 5.4151                 3.9478

                     10                     11                     12
                      A                      A                      A
 Frequencies --    370.4033               450.7626               453.2022
 Red. masses --      2.8054                 2.3339                 2.4502
 Frc consts  --      0.2268                 0.2794                 0.2965
 IR Inten    --      1.2399                 2.4644                 1.8872

                     13                     14                     15
                      A                      A                      A
 Frequencies --    605.9469               618.1711               630.8464
 Red. masses --      1.1591                 3.6010                 1.2410
 Frc consts  --      0.2507                 0.8108                 0.2910
 IR Inten    --    288.6012                32.3944               254.4296

                     16                     17                     18
                      A                      A                      A
 Frequencies --    704.6965               776.2242               852.4238
 Red. masses --      5.3280                 2.7705                 1.6416
 Frc consts  --      1.5589                 0.9835                 0.7028
 IR Inten    --     31.9375                15.3760                10.0218

                     19                     20                     21
                      A                      A                      A
 Frequencies --    904.0177               963.4956               970.8854
 Red. masses --      1.3195                 1.2957                 1.8760
 Frc consts  --      0.6354                 0.7087                 1.0419
 IR Inten    --    113.0485                12.7072                 8.7717

                     22                     23                     24
                      A                      A                      A
 Frequencies --    983.0910              1110.5714              1117.4142
 Red. masses --      1.7039                 3.4870                 3.4988
 Frc consts  --      0.9702                 2.5339                 2.5740
 IR Inten    --      3.5189                 9.7582                 6.6880

                     25                     26                     27
                      A                      A                      A
 Frequencies --   1127.1549              1144.5546              1168.4927
 Red. masses --      6.1455                 1.6631                 2.5039
 Frc consts  --      4.6002                 1.2836                 2.0143
 IR Inten    --     23.3548                 3.2997               130.8121

                     28                     29                     30
                      A                      A                      A
 Frequencies --   1197.2290              1230.2162              1256.2879
 Red. masses --      2.1043                 1.1298                 1.0897
 Frc consts  --      1.7771                 1.0074                 1.0133
 IR Inten    --     68.5811                 3.4678                26.0024

                     31                     32                     33
                      A                      A                      A
 Frequencies --   1289.2166              1337.7239              1356.5871
 Red. masses --      1.2705                 1.5612                 1.6696
 Frc consts  --      1.2441                 1.6460                 1.8103
 IR Inten    --     16.9362                31.6887                 9.1198

                     34                     35                     36
                      A                      A                      A
 Frequencies --   1391.7834              1396.6448              1454.3176
 Red. masses --      1.2565                 1.2842                 1.4365
 Frc consts  --      1.4340                 1.4759                 1.7901
 IR Inten    --      0.1400                 0.1101                 0.0977

                     37                     38                     39
                      A                      A                      A
 Frequencies --   1463.1989              1472.2523              1477.2240
 Red. masses --      1.1902                 1.2129                 1.1427
 Frc consts  --      1.5013                 1.5489                 1.4692
 IR Inten    --     14.6993                15.7205                 9.4849

                     40                     41                     42
                      A                      A                      A
 Frequencies --   1500.6894              1503.3302              1504.1290
 Red. masses --      1.1051                 1.0761                 1.1454
 Frc consts  --      1.4663                 1.4329                 1.5268
 IR Inten    --     62.0504                 9.6107               120.2873

                     43                     44                     45
                      A                      A                      A
 Frequencies --   1522.0927              2997.3092              2999.8802
 Red. masses --      1.0940                 1.0689                 1.0708
 Frc consts  --      1.4934                 5.6579                 5.6779
 IR Inten    --      2.5962                52.1012                52.3752

                     46                     47                     48
                      A                      A                      A
 Frequencies --   3037.1556              3091.1246              3093.5731
 Red. masses --      1.0623                 1.0828                 1.0774
 Frc consts  --      5.7734                 6.0957                 6.0748
 IR Inten    --     33.3773                10.5322                26.1360

                     49                     50                     51
                      A                      A                      A
 Frequencies --   3102.3756              3121.2634              3163.1705
 Red. masses --      1.1079                 1.0978                 1.1108
 Frc consts  --      6.2829                 6.3013                 6.5481
 IR Inten    --     25.6531                15.8017                 2.6079

                     52                     53                     54
                      A                      A                      A
 Frequencies --   3580.4240              3621.1390              3632.7778
 Red. masses --      1.0662                 1.0652                 1.0651
 Frc consts  --      8.0529                 8.2297                 8.2819
 IR Inten    --    119.4658               156.3289               166.8595

 Optimization completed.
    -- Stationary point found.
 Normal termination of Gaussian 16 at Mon Feb  6 10:25:57 2023.
