 Gaussian 16, Revision B.01,
 Gaussian 16:  ES64L-G16RevB.01 20-Dec-2017

 --------------------------------------------------------------
 #T wB97XD//def2svpp Volume=tight Geom=AllCheckpoint Guess=Read
 --------------------------------------------------------------
 Structure from the checkpoint file:  "15.chk"
 -------
 Monomer
 -------
 Charge =  0 Multiplicity = 1

                         Standard orientation:
 ---------------------------------------------------------------------
 Center     Atomic      Atomic             Coordinates (Angstroms)
 Number     Number       Type             X           Y           Z
 ---------------------------------------------------------------------
      1          6           0       -2.183381    0.034950    0.000001
      2          6           0       -0.874166    0.822249   -0.000014
      3          6           0        0.435093   -0.000230   -0.000000
      4          6           0        0.524621   -0.882485   -1.253928
      5          6           0        1.613770    0.985107   -0.000048
      6          6           0        0.524650   -0.882396    1.253988
      7          1           0       -3.044427    0.725209   -0.000005
      8          1           0       -2.279076   -0.607833    0.891843
      9          1           0       -2.279081   -0.607854   -0.891826
     10          1           0       -0.860139    1.489243    0.883072
     11          1           0       -0.860141    1.489212   -0.883123
     12          1           0        0.429321   -0.277038   -2.173768
     13          1           0       -0.265231   -1.653436   -1.271590
     14          1           0        1.496888   -1.405858   -1.294315
     15          1           0        1.588540    1.635876   -0.892824
     16          1           0        2.580168    0.449365   -0.000038
     17          1           0        1.588558    1.635940    0.892681
     18          1           0       -0.265225   -1.653322    1.271743
     19          1           0        0.429411   -0.276878    2.173787
     20          1           0        1.496903   -1.405797    1.294370
 ---------------------------------------------------------------------

 SCF Done:  E(RwB97XD) =  -236.817160542     A.U. after    1 cycles

 The electronic state is 1-A.
 Alpha  occ. eigenvalues --  -10.30309 -10.28420 -10.27829 -10.27658 -10.27657
 Alpha  occ. eigenvalues --  -10.27625  -0.91656  -0.82534  -0.76932  -0.76931
 Alpha  occ. eigenvalues --   -0.70757  -0.61128  -0.54541  -0.54332  -0.52205
 Alpha  occ. eigenvalues --   -0.50702  -0.48164  -0.46257  -0.45691  -0.44194
 Alpha  occ. eigenvalues --   -0.43792  -0.42228  -0.39501  -0.39433  -0.38736
 Alpha virt. eigenvalues --    0.12616   0.16782   0.17634   0.18003   0.19134
 Alpha virt. eigenvalues --    0.19404   0.20629   0.22523   0.22753   0.24374
 Alpha virt. eigenvalues --    0.25293   0.25722   0.27199   0.28357   0.28801

 Mulliken charges:
               1
     1  C   -0.320826
     2  C   -0.174963
     3  C   -0.249047
     4  C   -0.279095
     5  C   -0.260849
     6  C   -0.279094
     7  H    0.119407
     8  H    0.118307
     9  H    0.118308
    10  H    0.096279
    11  H    0.096279
    12  H    0.110967
    13  H    0.118731
    14  H    0.111630
    15  H    0.110511
    16  H    0.111618
    17  H    0.110511
    18  H    0.118731
    19  H    0.110966
    20  H    0.111630
 Sum of Mulliken charges =  -0.00000

 Dipole moment (field-independent basis, Debye):
    X=             -0.0507    Y=              0.0067    Z=             -0.0000  Tot=              0.0511
 Evaluate density.
 Using the total density.
 Monte-Carlo method of calculating molar volume:
 based on  0.001 e/bohr**3 density envelope.
 Number of points per bohr**3 =  100 CutOff= 1.00D-04
 Using the SCF density.
 There are      1811 points.  Will hold      1811 in memory.
 LenV=  1048341709 MDV=  1048576000.
 Box volume = 5940.962 fraction occupied=0.170
 Integrated density= 5.7480128670546939D+01 error= 7.4801286705469394D+00

 Normal termination of Gaussian 16 at Fri Sep 23 14:20:12 2022.
