 Gaussian 16, Revision B.01,
 Gaussian 16:  ES64L-G16RevB.01 20-Dec-2017

 --------------------------------------------------------------
 #T wB97XD//def2svpp Volume=tight Geom=AllCheckpoint Guess=Read
 --------------------------------------------------------------
 Structure from the checkpoint file:  "2.chk"
 -------
 Monomer
 -------
 Charge =  0 Multiplicity = 1

                         Standard orientation:
 ---------------------------------------------------------------------
 Center     Atomic      Atomic             Coordinates (Angstroms)
 Number     Number       Type             X           Y           Z
 ---------------------------------------------------------------------
      1          6           0       -1.219314    2.252792   -0.276027
      2          6           0       -0.812932    0.932051   -0.932505
      3          6           0        0.213394    0.057152   -0.181518
      4          6           0       -0.165049   -0.118696    1.299535
      5          8           0       -1.431528   -0.713294    1.506612
      6          6           0        0.279749   -1.328735   -0.862514
      7          8           0       -0.948983   -2.002854   -0.897540
      8          6           0        1.606204    0.711591   -0.257921
      9          8           0        2.626842   -0.012696    0.386097
     10          1           0       -1.902426    2.811475   -0.937660
     11          1           0       -0.354834    2.906875   -0.069991
     12          1           0       -1.751489    2.103969    0.681256
     13          1           0       -0.403966    1.141627   -1.938463
     14          1           0       -1.710728    0.316617   -1.115132
     15          1           0       -0.100291    0.853486    1.831385
     16          1           0        0.552740   -0.803459    1.779645
     17          1           0       -2.119797   -0.110642    1.191983
     18          1           0        1.062792   -1.929555   -0.357838
     19          1           0        0.598220   -1.198657   -1.912193
     20          1           0       -1.311485   -1.987851    0.004243
     21          1           0        1.557450    1.749179    0.130242
     22          1           0        1.903440    0.781256   -1.318364
     23          1           0        2.597417    0.159493    1.335234
 ---------------------------------------------------------------------

 SCF Done:  E(RwB97XD) =  -462.197856129     A.U. after    1 cycles

 The electronic state is 1-A.
 Alpha  occ. eigenvalues --  -19.27564 -19.25969 -19.22891 -10.35131 -10.34612
 Alpha  occ. eigenvalues --  -10.32510 -10.30795 -10.29885 -10.29869  -1.13753
 Alpha  occ. eigenvalues --   -1.12263  -1.09398  -0.91664  -0.83746  -0.78132
 Alpha  occ. eigenvalues --   -0.75819  -0.72403  -0.66158  -0.62915  -0.60906
 Alpha  occ. eigenvalues --   -0.57910  -0.56050  -0.54030  -0.53267  -0.51660
 Alpha  occ. eigenvalues --   -0.50602  -0.50368  -0.48109  -0.45829  -0.44689
 Alpha  occ. eigenvalues --   -0.43684  -0.42774  -0.41607  -0.40636  -0.36342
 Alpha  occ. eigenvalues --   -0.35597  -0.33251
 Alpha virt. eigenvalues --    0.10659   0.11833   0.14957   0.15942   0.18177
 Alpha virt. eigenvalues --    0.18612   0.19228   0.20889   0.21799   0.23174
 Alpha virt. eigenvalues --    0.23542   0.23856   0.24757   0.27133   0.28472

 Mulliken charges:
               1
     1  C   -0.322821
     2  C   -0.220196
     3  C   -0.317608
     4  C    0.013704
     5  O   -0.497673
     6  C    0.103666
     7  O   -0.504397
     8  C    0.047298
     9  O   -0.482643
    10  H    0.133019
    11  H    0.124376
    12  H    0.104854
    13  H    0.109665
    14  H    0.119783
    15  H    0.103480
    16  H    0.106799
    17  H    0.333704
    18  H    0.102896
    19  H    0.091719
    20  H    0.321685
    21  H    0.098282
    22  H    0.107869
    23  H    0.322539
 Sum of Mulliken charges =   0.00000

 Dipole moment (field-independent basis, Debye):
    X=             -0.3387    Y=              3.3271    Z=              1.6707  Tot=              3.7384
 Evaluate density.
 Using the total density.
 Monte-Carlo method of calculating molar volume:
 based on  0.001 e/bohr**3 density envelope.
 Number of points per bohr**3 =  100 CutOff= 1.00D-04
 Using the SCF density.
 There are      1856 points.  Will hold      1856 in memory.
 LenV=  1048240747 MDV=  1048576000.
 Box volume = 6400.134 fraction occupied=0.182
 Integrated density= 6.0529429530916033D+01 error=-1.3470570469083967D+01

 Normal termination of Gaussian 16 at Fri Sep 23 14:26:36 2022.
