 Gaussian 16, Revision B.01,
 Gaussian 16:  ES64L-G16RevB.01 20-Dec-2017

 ----------------------------------------------------------------------
 #T wB97XD/def2svpp opt=tight freq int(grid=ultrafine) scf=(verytight,q
 c) Volume=tight
 ----------------------------------------------------------------------
 -----
 Dimer
 -----
 Symbolic Z-matrix:
 Charge =  0 Multiplicity = 1

 SCF Done:  E(RwB97XD) =  -1565.49075474     a.u. after    9 cycles
 SCF Done:  E(RwB97XD) =  -1565.49503526     a.u. after    9 cycles
 SCF Done:  E(RwB97XD) =  -1565.49545338     a.u. after    5 cycles
 SCF Done:  E(RwB97XD) =  -1565.49565864     a.u. after    6 cycles
 SCF Done:  E(RwB97XD) =  -1565.49572868     a.u. after    5 cycles
 SCF Done:  E(RwB97XD) =  -1565.49576851     a.u. after    5 cycles
 SCF Done:  E(RwB97XD) =  -1565.49580166     a.u. after    5 cycles
 SCF Done:  E(RwB97XD) =  -1565.49581536     a.u. after    3 cycles
 SCF Done:  E(RwB97XD) =  -1565.49581881     a.u. after    3 cycles
 SCF Done:  E(RwB97XD) =  -1565.49582060     a.u. after    2 cycles
 SCF Done:  E(RwB97XD) =  -1565.49582700     a.u. after    2 cycles
 SCF Done:  E(RwB97XD) =  -1565.49582702     a.u. after    2 cycles
 SCF Done:  E(RwB97XD) =  -1565.49582703     a.u. after    2 cycles
 SCF Done:  E(RwB97XD) =  -1565.49582704     a.u. after    2 cycles
 SCF Done:  E(RwB97XD) =  -1565.49582703     a.u. after    2 cycles
 SCF Done:  E(RwB97XD) =  -1565.49582705     a.u. after    2 cycles
 SCF Done:  E(RwB97XD) =  -1565.49582705     a.u. after    2 cycles
 SCF Done:  E(RwB97XD) =  -1565.49582704     a.u. after    2 cycles
 SCF Done:  E(RwB97XD) =  -1565.49582705     a.u. after    2 cycles
 Optimization completed.
    -- Stationary point found.
 Normal termination of Gaussian 16 at Mon Apr  1 15:46:55 2024.

 ---------------------------------------------------------------------
 #T Geom=AllCheck Guess=TCheck SCRF=Check GenChk RwB97XD/def2SVPP Freq
 ---------------------------------------------------------------------
 Structure from the checkpoint file:  "dimer.chk"
 -----
 Dimer
 -----
 Charge =  0 Multiplicity = 1

                         Standard orientation:
 ---------------------------------------------------------------------
 Center     Atomic      Atomic             Coordinates (Angstroms)
 Number     Number       Type             X           Y           Z
 ---------------------------------------------------------------------
      1          6           0        2.544360   -0.564880   -1.673628
      2          6           0        2.463649   -0.362682   -0.174527
      3          6           0        2.072954   -1.604823    0.596608
      4         17           0        4.030252    0.281747    0.447203
      5          7           0        1.456500    0.770223    0.119780
      6          8           0        1.411675    1.689363   -0.657707
      7          8           0        0.784831    0.672672    1.122324
      8          1           0        1.560454   -0.892066   -2.047664
      9          1           0        3.290252   -1.347221   -1.883624
     10          1           0        2.838378    0.363911   -2.181279
     11          1           0        2.050317   -1.411808    1.677638
     12          1           0        2.812839   -2.392563    0.384420
     13          1           0        1.076699   -1.947703    0.272671
     14          6           0       -2.072984    1.605106   -0.595794
     15          6           0       -2.463689    0.362592    0.174736
     16          6           0       -2.544544    0.564099    1.673922
     17         17           0       -4.030205   -0.281642   -0.447416
     18          7           0       -1.456454   -0.770119   -0.120022
     19          8           0       -0.784970   -0.672234   -1.122652
     20          8           0       -1.411393   -1.689457    0.657226
     21          1           0       -2.050250    1.412596   -1.676910
     22          1           0       -1.076765    1.947850   -0.271602
     23          1           0       -2.812910    2.392724   -0.383295
     24          1           0       -1.560688    0.891140    2.048216
     25          1           0       -2.838592   -0.364927    2.181125
     26          1           0       -3.290474    1.346327    1.884202
 ---------------------------------------------------------------------

 SCF Done:  E(RwB97XD) =  -1565.49582705     a.u. after    1 cycles

 The electronic state is 1-A.
 Alpha  occ. eigenvalues -- -101.68728-101.68728 -19.31037 -19.31036 -19.30954
 Alpha  occ. eigenvalues --  -19.30948 -14.69883 -14.69880 -10.42801 -10.42800
 Alpha  occ. eigenvalues --  -10.31152 -10.31152 -10.30901 -10.30900  -9.59543
 Alpha  occ. eigenvalues --   -9.59542  -7.34949  -7.34949  -7.33947  -7.33947
 Alpha  occ. eigenvalues --   -7.33901  -7.33901  -1.35909  -1.35629  -1.17952
 Alpha  occ. eigenvalues --   -1.17921  -1.00755  -1.00644  -0.89091  -0.88872
 Alpha  occ. eigenvalues --   -0.81226  -0.81195  -0.81101  -0.80683  -0.67802
 Alpha  occ. eigenvalues --   -0.67499  -0.67031  -0.64665  -0.62999  -0.62515
 Alpha  occ. eigenvalues --   -0.62435  -0.62167  -0.55956  -0.55912  -0.54261
 Alpha  occ. eigenvalues --   -0.54129  -0.51568  -0.51240  -0.50231  -0.50188
 Alpha  occ. eigenvalues --   -0.47578  -0.46854  -0.46751  -0.46617  -0.43241
 Alpha  occ. eigenvalues --   -0.42129  -0.41858  -0.41807  -0.40241  -0.40051
 Alpha  occ. eigenvalues --   -0.39777  -0.39687  -0.39315  -0.39179
 Alpha virt. eigenvalues --   -0.02031  -0.00628   0.09961   0.09999   0.14425
 Alpha virt. eigenvalues --    0.14567   0.15117   0.17127   0.18777   0.20036
 Alpha virt. eigenvalues --    0.20817   0.21521   0.22341   0.22623   0.22735

 Mulliken charges:
               1
     1  C   -0.246807
     2  C   -0.162219
     3  C   -0.237493
     4  Cl  -0.076731
     5  N    0.266649
     6  O   -0.214199
     7  O   -0.248862
     8  H    0.166100
     9  H    0.143334
    10  H    0.161011
    11  H    0.154953
    12  H    0.141405
    13  H    0.152849
    14  C   -0.237505
    15  C   -0.162200
    16  C   -0.246794
    17  Cl  -0.076730
    18  N    0.266642
    19  O   -0.248836
    20  O   -0.214216
    21  H    0.154966
    22  H    0.152847
    23  H    0.141404
    24  H    0.166095
    25  H    0.161005
    26  H    0.143334
 Sum of Mulliken charges =  -0.00000

 Dipole moment (field-independent basis, Debye):
    X=             -0.0003    Y=             -0.0006    Z=              0.0013  Tot=              0.0015
  Exact polarizability: 126.038  -0.299  97.522  -3.626  -5.589 101.101
 Approx polarizability: 130.706   7.171 117.393  -6.867 -15.981 134.206
   1 Symmetry operations used in ECPInt.
 ECPInt:  NShTT=    6328 NPrTT=   26344 LenC2=    6020 LenP2D=   17580.
 LDataN:  DoStor=T MaxTD1= 6 Len=  172
 Calling FoFJK, ICntrl=    100127 FMM=F ISym2X=0 I1Cent= 0 IOpClX= 0 NMat=1 NMatS=1 NMatT=0.
 Full mass-weighted force constant matrix:
 Low frequencies ---   -6.2077   -0.0016   -0.0008    0.0016    6.4436    9.5003
 Low frequencies ---   25.6797   37.4227   49.3543
 Diagonal vibrational polarizability:

                      1                      2                      3
                      A                      A                      A
 Frequencies --     25.6777                37.4223                49.3216
 Red. masses --      4.1148                 7.0142                 5.6825
 Frc consts  --      0.0016                 0.0058                 0.0081
 IR Inten    --      4.4073                 0.5814                 0.0052

                      4                      5                      6
                      A                      A                      A
 Frequencies --     67.0863                69.1501                82.3834
 Red. masses --     10.9953                 9.5052                 7.3579
 Frc consts  --      0.0292                 0.0268                 0.0294
 IR Inten    --      0.0037                 5.9504                 0.0002

                      7                      8                      9
                      A                      A                      A
 Frequencies --     90.0374               124.2590               225.2382
 Red. masses --     14.7899                12.9816                 8.3513
 Frc consts  --      0.0706                 0.1181                 0.2496
 IR Inten    --      2.5337                 0.0001                14.7651

                     10                     11                     12
                      A                      A                      A
 Frequencies --    230.1565               267.2732               269.9348
 Red. masses --      9.9070                 1.1730                 1.1216
 Frc consts  --      0.3092                 0.0494                 0.0482
 IR Inten    --      0.0005                 0.9043                 0.0002

                     13                     14                     15
                      A                      A                      A
 Frequencies --    298.6605               298.9045               317.4958
 Red. masses --      2.4156                 2.4222                 1.1321
 Frc consts  --      0.1270                 0.1275                 0.0672
 IR Inten    --      0.0644                 0.0030                 0.0001

                     16                     17                     18
                      A                      A                      A
 Frequencies --    321.8439               348.7139               350.0988
 Red. masses --      1.0670                 4.8587                 4.6950
 Frc consts  --      0.0651                 0.3481                 0.3391
 IR Inten    --      1.9822                 0.0001                 3.5693

                     19                     20                     21
                      A                      A                      A
 Frequencies --    364.2473               365.2949               388.9483
 Red. masses --      2.8354                 2.7501                 2.7414
 Frc consts  --      0.2216                 0.2162                 0.2443
 IR Inten    --      3.4110                 0.0390                 0.0001

                     22                     23                     24
                      A                      A                      A
 Frequencies --    393.1884               541.4390               542.2899
 Red. masses --      2.9311                 5.3564                 5.3492
 Frc consts  --      0.2670                 0.9252                 0.9268
 IR Inten    --     11.3176                 0.0030                12.5850

                     25                     26                     27
                      A                      A                      A
 Frequencies --    565.5812               566.1731               690.7895
 Red. masses --      4.7965                 4.8146                 4.2675
 Frc consts  --      0.9040                 0.9093                 1.1998
 IR Inten    --      0.0055                30.9143                90.3558

                     28                     29                     30
                      A                      A                      A
 Frequencies --    691.4233               783.6957               786.1472
 Red. masses --      4.1663                 5.4018                 5.7425
 Frc consts  --      1.1735                 1.9547                 2.0910
 IR Inten    --      0.0487                 5.1848                 0.0000

                     31                     32                     33
                      A                      A                      A
 Frequencies --    905.0192               907.4291               963.3866
 Red. masses --      7.1212                 7.3511                 2.4519
 Frc consts  --      3.4365                 3.5664                 1.3408
 IR Inten    --      0.0000                48.8506                21.0007

                     34                     35                     36
                      A                      A                      A
 Frequencies --    963.7775               970.4366               970.4680
 Red. masses --      2.4078                 1.4250                 1.4203
 Frc consts  --      1.3177                 0.7907                 0.7881
 IR Inten    --      0.0003                 0.3457                 0.7479

                     37                     38                     39
                      A                      A                      A
 Frequencies --   1036.7048              1037.0450              1175.9312
 Red. masses --      1.2810                 1.2817                 1.9241
 Frc consts  --      0.8111                 0.8122                 1.5676
 IR Inten    --      1.0303                 0.0144               153.2171

                     40                     41                     42
                      A                      A                      A
 Frequencies --   1178.8620              1213.4826              1214.3450
 Red. masses --      1.9226                 2.1049                 2.1133
 Frc consts  --      1.5742                 1.8262                 1.8361
 IR Inten    --      0.0028                 0.0000                54.5787

                     43                     44                     45
                      A                      A                      A
 Frequencies --   1279.8806              1280.3467              1418.1013
 Red. masses --      3.1617                 3.1402                 1.3836
 Frc consts  --      3.0515                 3.0330                 1.6393
 IR Inten    --      0.0017                12.4287                 1.9855

                     46                     47                     48
                      A                      A                      A
 Frequencies --   1418.2451              1429.5023              1431.3380
 Red. masses --      1.3880                 1.3027                 1.2700
 Frc consts  --      1.6449                 1.5684                 1.5329
 IR Inten    --     63.6882                 0.0253                14.8728

                     49                     50                     51
                      A                      A                      A
 Frequencies --   1467.9261              1468.0562              1478.0113
 Red. masses --      1.0444                 1.0483                 1.0731
 Frc consts  --      1.3259                 1.3311                 1.3811
 IR Inten    --      0.6400                 6.8024                 0.0000

                     52                     53                     54
                      A                      A                      A
 Frequencies --   1479.1576              1487.6899              1490.1898
 Red. masses --      1.0573                 1.2124                 1.0490
 Frc consts  --      1.3629                 1.5810                 1.3724
 IR Inten    --      0.5734                28.1801                 0.0096

                     55                     56                     57
                      A                      A                      A
 Frequencies --   1496.7732              1497.0990              1512.6917
 Red. masses --      1.3883                 1.1712                 2.8359
 Frc consts  --      1.8326                 1.5466                 3.8234
 IR Inten    --      0.0001                 3.5735                 0.0084

                     58                     59                     60
                      A                      A                      A
 Frequencies --   1512.7730              1763.4736              1775.2925
 Red. masses --      3.1397                13.7770                13.4484
 Frc consts  --      4.2334                25.2431                24.9725
 IR Inten    --    231.7911                 0.0002               484.5580

                     61                     62                     63
                      A                      A                      A
 Frequencies --   3066.6575              3066.7095              3070.4320
 Red. masses --      1.0369                 1.0369                 1.0374
 Frc consts  --      5.7455                 5.7456                 5.7623
 IR Inten    --      1.5397                 0.8945                10.2397

                     64                     65                     66
                      A                      A                      A
 Frequencies --   3070.5344              3166.5513              3166.6307
 Red. masses --      1.0374                 1.1067                 1.1067
 Frc consts  --      5.7626                 6.5383                 6.5385
 IR Inten    --      6.8019                 0.4389                 0.5661

                     67                     68                     69
                      A                      A                      A
 Frequencies --   3171.2799              3171.4023              3192.9625
 Red. masses --      1.1058                 1.1058                 1.1058
 Frc consts  --      6.5525                 6.5527                 6.6425
 IR Inten    --      0.4757                 2.0435                 0.0011

                     70                     71                     72
                      A                      A                      A
 Frequencies --   3193.0049              3193.7678              3193.8672
 Red. masses --      1.1058                 1.1062                 1.1061
 Frc consts  --      6.6427                 6.6478                 6.6481
 IR Inten    --      0.1220                 2.6787                 0.0237

                           ! Non-Optimized Parameters !
 Normal termination of Gaussian 16 at Mon Apr  1 15:53:10 2024.
