 Gaussian 16, Revision B.01,
 Gaussian 16:  ES64L-G16RevB.01 20-Dec-2017

 ----------------------------------------------------------------------
 #T wB97XD/def2svpp opt=tight freq int(grid=ultrafine) scf=(verytight,q
 c)
 ----------------------------------------------------------------------
 -------
 comment
 -------
 Symbolic Z-matrix:
 Charge =  1 Multiplicity = 2

 SCF Done:  E(UwB97XD) =  -306.983775622     a.u. after   10 cycles
 SCF Done:  E(UwB97XD) =  -306.991682018     a.u. after   10 cycles
 SCF Done:  E(UwB97XD) =  -306.993436591     a.u. after    7 cycles
 SCF Done:  E(UwB97XD) =  -306.993678096     a.u. after    5 cycles
 SCF Done:  E(UwB97XD) =  -306.993722978     a.u. after    4 cycles
 SCF Done:  E(UwB97XD) =  -306.993725160     a.u. after    3 cycles
 SCF Done:  E(UwB97XD) =  -306.993725390     a.u. after    2 cycles
 SCF Done:  E(UwB97XD) =  -306.993725401     a.u. after    2 cycles
 SCF Done:  E(UwB97XD) =  -306.993725401     a.u. after    2 cycles
 SCF Done:  E(UwB97XD) =  -306.993725403     a.u. after    2 cycles
 Optimization completed.
    -- Stationary point found.
 Normal termination of Gaussian 16 at Mon Jul 10 19:23:48 2023.

 ---------------------------------------------------------------------
 #T Geom=AllCheck Guess=TCheck SCRF=Check GenChk UwB97XD/def2SVPP Freq
 ---------------------------------------------------------------------
 Structure from the checkpoint file:  "32.chk"
 -------
 comment
 -------
 Charge =  1 Multiplicity = 2

                         Standard orientation:
 ---------------------------------------------------------------------
 Center     Atomic      Atomic             Coordinates (Angstroms)
 Number     Number       Type             X           Y           Z
 ---------------------------------------------------------------------
      1          6           0        2.719244   -0.262340    0.000005
      2          6           0        1.386257    0.485399   -0.000003
      3          6           0        0.225543   -0.509333   -0.000008
      4          6           0       -1.193464    0.019173   -0.000017
      5          8           0       -2.163312   -0.820049    0.000007
      6          8           0       -1.346031    1.247994    0.000007
      7          1           0        2.828290   -0.897854   -0.894927
      8          1           0        2.828280   -0.897852    0.894940
      9          1           0        3.549804    0.460272    0.000008
     10          1           0        1.319065    1.134080   -0.889318
     11          1           0        1.319055    1.134082    0.889311
     12          1           0        0.235348   -1.162216    0.898443
     13          1           0        0.235357   -1.162218   -0.898457
     14          1           0       -3.065934   -0.429255    0.000025
 ---------------------------------------------------------------------

 SCF Done:  E(UwB97XD) =  -306.993725403     a.u. after    1 cycles

 The electronic state is 2-A.
 Alpha  occ. eigenvalues --  -19.64178 -19.59273 -10.73205 -10.54602 -10.47753
 Alpha  occ. eigenvalues --  -10.43151  -1.52984  -1.43954  -1.12466  -1.03070
 Alpha  occ. eigenvalues --   -0.96926  -0.90606  -0.86893  -0.85718  -0.85637
 Alpha  occ. eigenvalues --   -0.75134  -0.74867  -0.73171  -0.72097  -0.68149
 Alpha  occ. eigenvalues --   -0.66139  -0.61595  -0.59581  -0.58496
 Alpha virt. eigenvalues --   -0.19590  -0.08221  -0.03503   0.01112   0.01681
 Alpha virt. eigenvalues --    0.04686   0.06614   0.07381   0.08084   0.10251
 Alpha virt. eigenvalues --    0.10318   0.12899   0.14714   0.22372   0.29913

  Beta  occ. eigenvalues --  -19.62145 -19.59138 -10.73264 -10.54414 -10.47753
  Beta  occ. eigenvalues --  -10.43149  -1.50568  -1.40727  -1.11371  -1.02762
  Beta  occ. eigenvalues --   -0.96103  -0.87745  -0.86074  -0.84833  -0.81434
  Beta  occ. eigenvalues --   -0.74466  -0.73682  -0.70555  -0.68516  -0.66002
  Beta  occ. eigenvalues --   -0.61558  -0.59498  -0.58482
  Beta virt. eigenvalues --   -0.38713  -0.19081  -0.07843  -0.03240   0.01230
  Beta virt. eigenvalues --    0.01871   0.04859   0.07019   0.07409   0.08549
  Beta virt. eigenvalues --    0.10320   0.10522   0.13543   0.15242   0.22937

 Mulliken charges and spin densities:
               1          2
     1  C   -0.338247   0.000194
     2  C   -0.258284  -0.001004
     3  C   -0.304888   0.126644
     4  C    0.312704  -0.051967
     5  O   -0.222173   0.039031
     6  O    0.095590   0.857044
     7  H    0.151999   0.000018
     8  H    0.151999   0.000018
     9  H    0.180034   0.000577
    10  H    0.166099   0.001187
    11  H    0.166099   0.001187
    12  H    0.237033   0.012552
    13  H    0.237032   0.012553
    14  H    0.425004   0.001967
 Sum of Mulliken charges =   1.00000   1.00000

 Dipole moment (field-independent basis, Debye):
    X=             -4.2192    Y=             -0.5134    Z=             -0.0000  Tot=              4.2503
  Exact polarizability:  63.273  -3.626  46.882  -0.000   0.000  34.987
 Approx polarizability:  54.398  -2.908  56.937  -0.000   0.000  39.105
                          Isotropic Fermi Contact Couplings
        Atom                 a.u.       MegaHertz       Gauss      10(-4) cm-1
     1  C(13)              0.00142       1.59482       0.56907       0.53197
     2  C(13)              0.00339       3.80677       1.35835       1.26980
     3  C(13)              0.03075      34.56668      12.33425      11.53020
     4  C(13)             -0.02341     -26.31959      -9.39148      -8.77927
     5  O(17)              0.01909     -11.57202      -4.12919      -3.86001
     6  O(17)              0.29556    -179.16471     -63.93042     -59.76291

 ******    1 imaginary frequencies (negative Signs) ******

                      1                      2                      3
                      A                      A                      A
 Frequencies --    -43.1688               105.8831               155.6719
 Red. masses --      2.1060                 2.5116                 4.1786
 Frc consts  --      0.0023                 0.0166                 0.0597
 IR Inten    --      0.3719                 0.0010                 3.4775

                      4                      5                      6
                      A                      A                      A
 Frequencies --    242.7442               320.4228               411.2626
 Red. masses --      1.0810                 3.7366                 6.1404
 Frc consts  --      0.0375                 0.2260                 0.6119
 IR Inten    --      0.4803                 0.5114                 7.3128

                      7                      8                      9
                      A                      A                      A
 Frequencies --    461.2175               521.1144               672.7709
 Red. masses --      3.7133                 1.6503                 1.2453
 Frc consts  --      0.4654                 0.2641                 0.3321
 IR Inten    --     12.8764                22.2907               135.5400

                     10                     11                     12
                      A                      A                      A
 Frequencies --    761.2758               818.4026               859.4109
 Red. masses --      1.2838                 4.6727                 1.5604
 Frc consts  --      0.4384                 1.8440                 0.6790
 IR Inten    --     30.5246                 5.9553                 4.4387

                     13                     14                     15
                      A                      A                      A
 Frequencies --    924.0763              1060.0000              1079.1906
 Red. masses --      2.0447                 2.8108                 1.3736
 Frc consts  --      1.0287                 1.8608                 0.9426
 IR Inten    --     35.3751                13.8297                 5.8233

                     16                     17                     18
                      A                      A                      A
 Frequencies --   1089.3164              1169.7307              1212.3416
 Red. masses --      1.6996                 2.0263                 1.5149
 Frc consts  --      1.1883                 1.6335                 1.3118
 IR Inten    --     40.6461                13.7728               164.8400

                     19                     20                     21
                      A                      A                      A
 Frequencies --   1252.8378              1309.2975              1337.7715
 Red. masses --      1.3350                 1.4484                 1.0851
 Frc consts  --      1.2346                 1.4629                 1.1442
 IR Inten    --      0.0208                10.0667                 1.5851

                     22                     23                     24
                      A                      A                      A
 Frequencies --   1379.9586              1426.5497              1432.7986
 Red. masses --      1.3546                 1.5858                 1.3136
 Frc consts  --      1.5198                 1.9014                 1.5889
 IR Inten    --      2.4920                33.7952                 4.5140

                     25                     26                     27
                      A                      A                      A
 Frequencies --   1488.5977              1494.7661              1497.9107
 Red. masses --      1.0522                 1.0346                 1.0964
 Frc consts  --      1.3738                 1.3620                 1.4494
 IR Inten    --     10.4395                20.5889                16.5346

                     28                     29                     30
                      A                      A                      A
 Frequencies --   1641.6127              3000.8586              3048.9339
 Red. masses --      6.0256                 1.0595                 1.0390
 Frc consts  --      9.5673                 5.6214                 5.6904
 IR Inten    --    194.7313                66.8542                 7.1706

                     31                     32                     33
                      A                      A                      A
 Frequencies --   3063.9691              3072.0528              3128.7208
 Red. masses --      1.1016                 1.0622                 1.1088
 Frc consts  --      6.0934                 5.9064                 6.3950
 IR Inten    --     19.2430                 2.4090                 0.2433

                     34                     35                     36
                      A                      A                      A
 Frequencies --   3148.9789              3162.7241              3569.1565
 Red. masses --      1.1070                 1.1048                 1.0674
 Frc consts  --      6.4678                 6.5114                 8.0114
 IR Inten    --      7.4231                 1.3161               366.6190

    1 imaginary frequencies ignored.
                           ! Non-Optimized Parameters !
 Normal termination of Gaussian 16 at Mon Jul 10 19:24:52 2023.
