 Gaussian 16, Revision B.01,
 Gaussian 16:  ES64L-G16RevB.01 20-Dec-2017

 ----------------------------------------------------------------------
 #T wB97XD/def2svpp opt=(calcall,tight) freq int(grid=ultrafine) scf=(v
 erytight,qc)
 ----------------------------------------------------------------------
 -----
 dimer
 -----
 Symbolic Z-matrix:
 Charge =  0 Multiplicity = 1

 SCF Done:  E(RwB97XD) =  -80.9277491864     a.u. after    6 cycles
 SCF Done:  E(RwB97XD) =  -80.9277503922     a.u. after    5 cycles
 SCF Done:  E(RwB97XD) =  -80.9277509666     a.u. after    4 cycles
 SCF Done:  E(RwB97XD) =  -80.9277447765     a.u. after    6 cycles
 SCF Done:  E(RwB97XD) =  -80.9277429940     a.u. after    5 cycles
 SCF Done:  E(RwB97XD) =  -80.9277422432     a.u. after    5 cycles
 SCF Done:  E(RwB97XD) =  -80.9277476650     a.u. after    5 cycles
 SCF Done:  E(RwB97XD) =  -80.9277390849     a.u. after    5 cycles
 SCF Done:  E(RwB97XD) =  -80.9277442389     a.u. after    5 cycles
 SCF Done:  E(RwB97XD) =  -80.9277397752     a.u. after    5 cycles
 SCF Done:  E(RwB97XD) =  -80.9277530026     a.u. after    2 cycles
 SCF Done:  E(RwB97XD) =  -80.9277530035     a.u. after    2 cycles
 SCF Done:  E(RwB97XD) =  -80.9277530177     a.u. after    2 cycles
 SCF Done:  E(RwB97XD) =  -80.9277531100     a.u. after    2 cycles
 SCF Done:  E(RwB97XD) =  -80.9277530224     a.u. after    2 cycles
 SCF Done:  E(RwB97XD) =  -80.9277534489     a.u. after    2 cycles
 SCF Done:  E(RwB97XD) =  -80.9277530138     a.u. after    2 cycles
 SCF Done:  E(RwB97XD) =  -80.9277533283     a.u. after    2 cycles
 SCF Done:  E(RwB97XD) =  -80.9277530031     a.u. after    2 cycles
 Optimization completed.
    -- Stationary point found.
 Normal termination of Gaussian 16 at Tue Sep 13 10:46:42 2022.

 ---------------------------------------------------------------------
 #T Geom=AllCheck Guess=TCheck SCRF=Check GenChk RwB97XD/def2SVPP Freq
 ---------------------------------------------------------------------
 Structure from the checkpoint file:  "/scratch/user/peterchao1/peterchao1/6269713_1663082913000000906876550/Gau-129727.chk"
 -----
 dimer
 -----
 Charge =  0 Multiplicity = 1

                         Standard orientation:
 ---------------------------------------------------------------------
 Center     Atomic      Atomic             Coordinates (Angstroms)
 Number     Number       Type             X           Y           Z
 ---------------------------------------------------------------------
      1          6           0        1.795614    0.000000   -0.000008
      2          1           0        1.432675    0.899839    0.522070
      3          1           0        1.414072   -0.001516   -1.033649
      4          1           0        1.432625   -0.898273    0.524724
      5          1           0        2.897568   -0.000050   -0.013096
      6          6           0       -1.795614   -0.000000    0.000008
      7          1           0       -1.414072    0.001522    1.033649
      8          1           0       -1.432675   -0.899842   -0.522064
      9          1           0       -1.432625    0.898270   -0.524730
     10          1           0       -2.897568    0.000049    0.013096
 ---------------------------------------------------------------------

 SCF Done:  E(RwB97XD) =  -80.9277530031     a.u. after    1 cycles

 The electronic state is 1-A.
 Alpha  occ. eigenvalues --  -10.27407 -10.27403  -0.78151  -0.77563  -0.48116
 Alpha  occ. eigenvalues --   -0.47677  -0.47667  -0.46998  -0.46986  -0.46624
 Alpha virt. eigenvalues --    0.13548   0.19108   0.21167   0.21249   0.21750
 Alpha virt. eigenvalues --    0.23945   0.24385   0.24532   0.43215   0.50399
 Alpha virt. eigenvalues --    0.50475   0.52478   0.52554   0.67345   0.74386

 Mulliken charges:
               1
     1  C   -0.535172
     2  H    0.133717
     3  H    0.133895
     4  H    0.133718
     5  H    0.133843
     6  C   -0.535172
     7  H    0.133895
     8  H    0.133717
     9  H    0.133718
    10  H    0.133843
 Sum of Mulliken charges =   0.00000

 Dipole moment (field-independent basis, Debye):
    X=             -0.0000    Y=              0.0000    Z=             -0.0000  Tot=              0.0000
  Exact polarizability:  26.559   0.000  23.795  -0.009  -0.000  23.781
 Approx polarizability:  23.175  -0.000  22.574  -0.009  -0.000  22.574
   1 Symmetry operations used in ECPInt.
 ECPInt:  NShTT=     406 NPrTT=    1646 LenC2=     406 LenP2D=    1413.
 LDataN:  DoStor=T MaxTD1= 6 Len=  172
 Calling FoFJK, ICntrl=    100127 FMM=F ISym2X=0 I1Cent= 0 IOpClX= 0 NMat=1 NMatS=1 NMatT=0.
 Full mass-weighted force constant matrix:
 Low frequencies ---    0.0004    0.0006    0.0011    9.9314   12.6879   23.3188
 Low frequencies ---   40.1672   95.4366  112.3934
 Diagonal vibrational polarizability:

                      1                      2                      3
                      A                      A                      A
 Frequencies --     40.1672                95.0278               110.7601
 Red. masses --      1.0078                 2.4465                 1.0510
 Frc consts  --      0.0010                 0.0130                 0.0076
 IR Inten    --      0.0001                 0.0000                 0.0000

                      4                      5                      6
                      A                      A                      A
 Frequencies --    134.8926               138.3744               162.8369
 Red. masses --      1.0078                 1.1744                 1.0078
 Frc consts  --      0.0108                 0.0132                 0.0157
 IR Inten    --      0.0001                 0.0000                 0.0129

                      7                      8                      9
                      A                      A                      A
 Frequencies --   1337.9328              1338.3444              1341.4402
 Red. masses --      1.1752                 1.1753                 1.1747
 Frc consts  --      1.2394                 1.2403                 1.2455
 IR Inten    --     43.3083                41.8204                 0.0000

                     10                     11                     12
                      A                      A                      A
 Frequencies --   1341.7661              1342.4335              1352.0968
 Red. masses --      1.1746                 1.1743                 1.1704
 Frc consts  --      1.2459                 1.2469                 1.2607
 IR Inten    --      0.0000                51.6433                 0.0000

                     13                     14                     15
                      A                      A                      A
 Frequencies --   1544.7721              1547.0040              1552.8017
 Red. masses --      1.0078                 1.0078                 1.0078
 Frc consts  --      1.4170                 1.4211                 1.4318
 IR Inten    --      0.0000                 0.0000                 0.3686

                     16                     17                     18
                      A                      A                      A
 Frequencies --   1555.3062              3020.5117              3021.2747
 Red. masses --      1.0079                 1.0078                 1.0078
 Frc consts  --      1.4364                 5.4175                 5.4203
 IR Inten    --      0.3914                 0.0778                 0.0000

                     19                     20                     21
                      A                      A                      A
 Frequencies --   3165.8807              3167.3112              3168.1743
 Red. masses --      1.1058                 1.1049                 1.1050
 Frc consts  --      6.5303                 6.5306                 6.5346
 IR Inten    --     37.1193                 0.0000                 0.0000

                     22                     23                     24
                      A                      A                      A
 Frequencies --   3168.4414              3169.5198              3169.7714
 Red. masses --      1.1050                 1.1049                 1.1049
 Frc consts  --      6.5359                 6.5395                 6.5408
 IR Inten    --      0.0000                25.2955                25.3710

                           ! Non-Optimized Parameters !
 Normal termination of Gaussian 16 at Tue Sep 13 10:46:51 2022.
