 Gaussian 16, Revision B.01,
 Gaussian 16:  ES64L-G16RevB.01 20-Dec-2017

 ----------------------------------------------------------------------
 #T wB97XD/def2svpp opt=tight freq int(grid=ultrafine) scf=(verytight,q
 c)
 ----------------------------------------------------------------------
 -------
 comment
 -------
 Symbolic Z-matrix:
 Charge =  1 Multiplicity = 2

 SCF Done:  E(UwB97XD) =  -271.118320660     a.u. after    9 cycles
 SCF Done:  E(UwB97XD) =  -271.122757104     a.u. after    8 cycles
 SCF Done:  E(UwB97XD) =  -271.124037009     a.u. after    7 cycles
 SCF Done:  E(UwB97XD) =  -271.124877333     a.u. after    9 cycles
 SCF Done:  E(UwB97XD) =  -271.125250313     a.u. after    7 cycles
 SCF Done:  E(UwB97XD) =  -271.125060978     a.u. after    7 cycles
 SCF Done:  E(UwB97XD) =  -271.124717143     a.u. after   10 cycles
 SCF Done:  E(UwB97XD) =  -271.125353468     a.u. after    6 cycles
 SCF Done:  E(UwB97XD) =  -271.125435872     a.u. after    4 cycles
 SCF Done:  E(UwB97XD) =  -271.125437892     a.u. after    2 cycles
 SCF Done:  E(UwB97XD) =  -271.125438379     a.u. after    2 cycles
 SCF Done:  E(UwB97XD) =  -271.125438432     a.u. after    2 cycles
 SCF Done:  E(UwB97XD) =  -271.125438451     a.u. after    2 cycles
 SCF Done:  E(UwB97XD) =  -271.125438453     a.u. after    2 cycles
 SCF Done:  E(UwB97XD) =  -271.125438453     a.u. after    2 cycles
 Optimization completed.
    -- Stationary point found.
 Normal termination of Gaussian 16 at Mon Jul 10 19:27:11 2023.

 ---------------------------------------------------------------------
 #T Geom=AllCheck Guess=TCheck SCRF=Check GenChk UwB97XD/def2SVPP Freq
 ---------------------------------------------------------------------
 Structure from the checkpoint file:  "22.chk"
 -------
 comment
 -------
 Charge =  1 Multiplicity = 2

                         Standard orientation:
 ---------------------------------------------------------------------
 Center     Atomic      Atomic             Coordinates (Angstroms)
 Number     Number       Type             X           Y           Z
 ---------------------------------------------------------------------
      1          6           0       -0.270147    1.562001   -0.000016
      2          6           0       -0.427158    0.056969   -0.000015
      3          6           0       -1.013696   -0.514360    1.284407
      4          6           0       -1.013641   -0.514366   -1.284458
      5          6           0        1.111949   -0.646643    0.000027
      6          8           0        2.076999    0.006231    0.000068
      7          1           0        0.246730    1.930495    0.900012
      8          1           0       -1.288916    1.991524   -0.000043
      9          1           0        0.246774    1.930489   -0.900020
     10          1           0       -1.091281   -1.613786    1.274018
     11          1           0       -2.041096   -0.105734    1.356406
     12          1           0       -0.472931   -0.181090    2.185769
     13          1           0       -0.472836   -0.181104   -2.185799
     14          1           0       -2.041038   -0.105739   -1.356506
     15          1           0       -1.091229   -1.613792   -1.274065
     16          1           0        1.065995   -1.762713    0.000011
 ---------------------------------------------------------------------

 SCF Done:  E(UwB97XD) =  -271.125438453     a.u. after    1 cycles

 The electronic state is 2-A.
 Alpha  occ. eigenvalues --  -19.59657 -10.66666 -10.57903 -10.48984 -10.48983
 Alpha  occ. eigenvalues --  -10.47481  -1.47664  -1.14537  -0.98968  -0.98892
 Alpha  occ. eigenvalues --   -0.96078  -0.88192  -0.84069  -0.79782  -0.79113
 Alpha  occ. eigenvalues --   -0.73080  -0.72656  -0.70332  -0.67313  -0.66106
 Alpha  occ. eigenvalues --   -0.64932  -0.63476  -0.63254  -0.59486
 Alpha virt. eigenvalues --   -0.20332  -0.04912  -0.03905  -0.00712   0.02459
 Alpha virt. eigenvalues --    0.02649   0.03499   0.03690   0.05447   0.07330
 Alpha virt. eigenvalues --    0.07530   0.07842   0.09519   0.10309   0.11807

  Beta  occ. eigenvalues --  -19.58414 -10.66592 -10.57544 -10.48957 -10.48955
  Beta  occ. eigenvalues --  -10.47488  -1.45125  -1.13296  -0.98682  -0.98402
  Beta  occ. eigenvalues --   -0.94188  -0.84984  -0.81967  -0.78000  -0.77854
  Beta  occ. eigenvalues --   -0.72690  -0.72248  -0.66574  -0.66208  -0.65402
  Beta  occ. eigenvalues --   -0.64845  -0.63191  -0.63032
  Beta virt. eigenvalues --   -0.34550  -0.19645  -0.04291  -0.02854   0.00135
  Beta virt. eigenvalues --    0.02688   0.02786   0.03543   0.03793   0.06557
  Beta virt. eigenvalues --    0.07498   0.07954   0.08328   0.10047   0.10317

 Mulliken charges and spin densities:
               1          2
     1  C   -0.265468   0.005984
     2  C   -0.403779   0.245019
     3  C   -0.294858   0.019064
     4  C   -0.294858   0.019063
     5  C    0.163010   0.010565
     6  O    0.091049   0.490330
     7  H    0.182766   0.000961
     8  H    0.195511   0.017120
     9  H    0.182766   0.000961
    10  H    0.177938  -0.001402
    11  H    0.214473   0.032890
    12  H    0.193811   0.003922
    13  H    0.193811   0.003922
    14  H    0.214473   0.032890
    15  H    0.177937  -0.001402
    16  H    0.271419   0.120114
 Sum of Mulliken charges =   1.00000   1.00000

 Dipole moment (field-independent basis, Debye):
    X=             -0.4512    Y=             -1.9163    Z=             -0.0000  Tot=              1.9687
  Exact polarizability:  71.902  -1.132  53.616   0.001   0.000  51.114
 Approx polarizability:  79.997   2.272  56.247   0.001   0.000  52.138
                          Isotropic Fermi Contact Couplings
        Atom                 a.u.       MegaHertz       Gauss      10(-4) cm-1
     1  C(13)             -0.01002     -11.26666      -4.02023      -3.75815
     2  C(13)              0.02071      23.28066       8.30712       7.76559
     3  C(13)             -0.00168      -1.88763      -0.67355      -0.62965
     4  C(13)             -0.00168      -1.88798      -0.67368      -0.62976
     5  C(13)             -0.02297     -25.82391      -9.21461      -8.61393
     6  O(17)              0.17078    -103.52828     -36.94146     -34.53332

                      1                      2                      3
                      A                      A                      A
 Frequencies --     58.5972               210.9923               253.7323
 Red. masses --      3.7493                 1.0422                 2.5031
 Frc consts  --      0.0076                 0.0273                 0.0949
 IR Inten    --      6.2458                 2.0665                 4.1726

                      4                      5                      6
                      A                      A                      A
 Frequencies --    262.0780               283.5141               295.1412
 Red. masses --      1.4173                 1.1042                 2.9504
 Frc consts  --      0.0574                 0.0523                 0.1514
 IR Inten    --      0.0723                 4.7068                 7.2229

                      7                      8                      9
                      A                      A                      A
 Frequencies --    327.1820               384.8671               403.0286
 Red. masses --      1.8263                 2.8602                 2.1787
 Frc consts  --      0.1152                 0.2496                 0.2085
 IR Inten    --      6.1568                 5.1717                 1.2843

                     10                     11                     12
                      A                      A                      A
 Frequencies --    445.9227               503.0730               774.2991
 Red. masses --      2.2219                 4.2653                 3.5078
 Frc consts  --      0.2603                 0.6360                 1.2391
 IR Inten    --     38.1344                 6.9049                14.9185

                     13                     14                     15
                      A                      A                      A
 Frequencies --    878.1512               908.5409               920.7319
 Red. masses --      1.5943                 1.3703                 1.4321
 Frc consts  --      0.7244                 0.6664                 0.7153
 IR Inten    --      2.0905                 2.1429                 1.5362

                     16                     17                     18
                      A                      A                      A
 Frequencies --    982.9410              1005.6374              1015.7793
 Red. masses --      1.2502                 1.6850                 1.4711
 Frc consts  --      0.7117                 1.0040                 0.8943
 IR Inten    --      0.0066                 0.9397                39.6174

                     19                     20                     21
                      A                      A                      A
 Frequencies --   1060.9854              1166.9959              1246.8544
 Red. masses --      1.1804                 1.6025                 2.6449
 Frc consts  --      0.7829                 1.2858                 2.4227
 IR Inten    --    133.7806                45.9732                14.3520

                     22                     23                     24
                      A                      A                      A
 Frequencies --   1292.5541              1377.9170              1390.5850
 Red. masses --      2.6495                 1.1503                 1.1895
 Frc consts  --      2.6081                 1.2868                 1.3553
 IR Inten    --     13.4416                26.0825                22.9960

                     25                     26                     27
                      A                      A                      A
 Frequencies --   1422.5549              1422.6129              1458.1852
 Red. masses --      1.1781                 1.0420                 1.0909
 Frc consts  --      1.4047                 1.2425                 1.3667
 IR Inten    --     17.3793                 2.8522                 7.0043

                     28                     29                     30
                      A                      A                      A
 Frequencies --   1466.1660              1471.1507              1477.1613
 Red. masses --      1.0446                 1.0662                 1.0892
 Frc consts  --      1.3230                 1.3596                 1.4002
 IR Inten    --     15.3240                 5.8236                 6.6641

                     31                     32                     33
                      A                      A                      A
 Frequencies --   1508.0858              1937.1788              2978.4099
 Red. masses --      1.0706                 9.4691                 1.0952
 Frc consts  --      1.4346                20.9363                 5.7244
 IR Inten    --     18.1956                25.2223                44.0135

                     34                     35                     36
                      A                      A                      A
 Frequencies --   3020.3985              3024.6002              3044.1314
 Red. masses --      1.0407                 1.0416                 1.0406
 Frc consts  --      5.5939                 5.6142                 5.6813
 IR Inten    --     12.2240                23.8883                 8.5538

                     37                     38                     39
                      A                      A                      A
 Frequencies --   3119.0096              3121.6433              3140.2607
 Red. masses --      1.0956                 1.0971                 1.0997
 Frc consts  --      6.2796                 6.2991                 6.3893
 IR Inten    --      8.3188                27.9994                12.1282

                     40                     41                     42
                      A                      A                      A
 Frequencies --   3160.2138              3160.9976              3173.7215
 Red. masses --      1.1091                 1.1092                 1.1089
 Frc consts  --      6.5258                 6.5301                 6.5810
 IR Inten    --      0.9467                 1.0781                 0.0041

 Optimization completed.
    -- Stationary point found.
 Normal termination of Gaussian 16 at Mon Jul 10 19:28:35 2023.
