 Gaussian 16, Revision B.01,
 Gaussian 16:  ES64L-G16RevB.01 20-Dec-2017

 --------------------------------------------------------------
 #T wB97XD//def2svpp Volume=tight Geom=AllCheckpoint Guess=Read
 --------------------------------------------------------------
 Structure from the checkpoint file:  "22.chk"
 -------
 Monomer
 -------
 Charge =  0 Multiplicity = 1

                         Standard orientation:
 ---------------------------------------------------------------------
 Center     Atomic      Atomic             Coordinates (Angstroms)
 Number     Number       Type             X           Y           Z
 ---------------------------------------------------------------------
      1          6           0       -0.169101    1.544584   -0.000004
      2          6           0       -0.330037    0.025248   -0.000001
      3          6           0       -1.076676   -0.452449    1.257542
      4          6           0       -1.076717   -0.452452   -1.257518
      5          6           0        1.034004   -0.649611   -0.000018
      6          8           0        2.093949   -0.086754   -0.000007
      7          1           0        0.388327    1.884233    0.888804
      8          1           0       -1.158191    2.035437    0.000018
      9          1           0        0.388287    1.884234   -0.888837
     10          1           0       -1.160971   -1.553950    1.285658
     11          1           0       -2.099624   -0.037035    1.270785
     12          1           0       -0.563053   -0.123056    2.177759
     13          1           0       -0.563118   -0.123070   -2.177753
     14          1           0       -2.099661   -0.037030   -1.270735
     15          1           0       -1.161020   -1.553952   -1.285622
     16          1           0        0.988599   -1.773692   -0.000035
 ---------------------------------------------------------------------

 SCF Done:  E(RwB97XD) =  -271.472688553     A.U. after    1 cycles

 The electronic state is 1-A.
 Alpha  occ. eigenvalues --  -19.25727 -10.38237 -10.32096 -10.29845 -10.29844
 Alpha  occ. eigenvalues --  -10.28491  -1.14258  -0.92490  -0.78896  -0.78426
 Alpha  occ. eigenvalues --   -0.72683  -0.62578  -0.57373  -0.54782  -0.54265
 Alpha  occ. eigenvalues --   -0.51865  -0.49427  -0.47535  -0.46337  -0.45593
 Alpha  occ. eigenvalues --   -0.45534  -0.42452  -0.42156  -0.33465
 Alpha virt. eigenvalues --    0.05495   0.12630   0.16543   0.17669   0.19206
 Alpha virt. eigenvalues --    0.19674   0.19980   0.21308   0.24378   0.24794
 Alpha virt. eigenvalues --    0.26345   0.26510   0.28402   0.29491   0.34008

 Mulliken charges:
               1
     1  C   -0.256715
     2  C   -0.285345
     3  C   -0.290215
     4  C   -0.290215
     5  C    0.116839
     6  O   -0.202465
     7  H    0.127551
     8  H    0.113259
     9  H    0.127550
    10  H    0.121833
    11  H    0.127893
    12  H    0.132366
    13  H    0.132365
    14  H    0.127893
    15  H    0.121834
    16  H    0.075572
 Sum of Mulliken charges =  -0.00000

 Dipole moment (field-independent basis, Debye):
    X=             -2.5406    Y=             -0.6940    Z=             -0.0000  Tot=              2.6337
 Evaluate density.
 Using the total density.
 Monte-Carlo method of calculating molar volume:
 based on  0.001 e/bohr**3 density envelope.
 Number of points per bohr**3 =  100 CutOff= 1.00D-04
 Using the SCF density.
 There are      1747 points.  Will hold      1747 in memory.
 LenV=  1048365277 MDV=  1048576000.
 Box volume = 5334.951 fraction occupied=0.181
 Integrated density= 4.5830071965348452D+01 error=-2.1699280346515479D+00

 Normal termination of Gaussian 16 at Thu Feb  2 12:58:34 2023.
