 Gaussian 16, Revision B.01,
 Gaussian 16:  ES64L-G16RevB.01 20-Dec-2017

 ----------------------------------------------------------------------
 #T wB97XD/def2svpp opt=tight freq int(grid=ultrafine) scf=(verytight,q
 c) Volume=tight
 ----------------------------------------------------------------------
 -------
 Monomer
 -------
 Symbolic Z-matrix:
 Charge =  0 Multiplicity = 1

 SCF Done:  E(RwB97XD) =  -657.000564819     a.u. after    7 cycles
 SCF Done:  E(RwB97XD) =  -657.002808040     a.u. after    6 cycles
 SCF Done:  E(RwB97XD) =  -657.002902313     a.u. after    4 cycles
 SCF Done:  E(RwB97XD) =  -657.002912927     a.u. after    3 cycles
 SCF Done:  E(RwB97XD) =  -657.002913387     a.u. after    2 cycles
 SCF Done:  E(RwB97XD) =  -657.002913431     a.u. after    2 cycles
 SCF Done:  E(RwB97XD) =  -657.002913433     a.u. after    2 cycles
 SCF Done:  E(RwB97XD) =  -657.002913426     a.u. after    2 cycles
 SCF Done:  E(RwB97XD) =  -657.002913432     a.u. after    2 cycles
 SCF Done:  E(RwB97XD) =  -657.002913433     a.u. after    2 cycles
 Optimization completed.
    -- Stationary point found.
 Normal termination of Gaussian 16 at Mon Feb  6 10:18:33 2023.

 ---------------------------------------------------------------------
 #T Geom=AllCheck Guess=TCheck SCRF=Check GenChk RwB97XD/def2SVPP Freq
 ---------------------------------------------------------------------
 Structure from the checkpoint file:  "19.chk"
 -------
 Monomer
 -------
 Charge =  0 Multiplicity = 1

                         Standard orientation:
 ---------------------------------------------------------------------
 Center     Atomic      Atomic             Coordinates (Angstroms)
 Number     Number       Type             X           Y           Z
 ---------------------------------------------------------------------
      1          6           0       -0.804217   -0.893311   -1.257622
      2          6           0       -0.778501   -0.015528   -0.000000
      3          6           0       -2.000704    0.918102    0.000016
      4          6           0       -0.804224   -0.893366    1.257584
      5          6           0        0.459469    0.892412    0.000022
      6         17           0        2.027884    0.007768    0.000000
      7          1           0       -1.716572   -1.515050   -1.274894
      8          1           0        0.069787   -1.564830   -1.291956
      9          1           0       -0.796627   -0.276240   -2.174308
     10          1           0       -2.933565    0.327641    0.000001
     11          1           0       -2.013513    1.566758   -0.894313
     12          1           0       -2.013518    1.566720    0.894374
     13          1           0        0.069781   -1.564884    1.291896
     14          1           0       -1.716577   -1.515108    1.274822
     15          1           0       -0.796643   -0.276334    2.174297
     16          1           0        0.471240    1.534684    0.894389
     17          1           0        0.471241    1.534727   -0.894315
 ---------------------------------------------------------------------

 SCF Done:  E(RwB97XD) =  -657.002913433     a.u. after    1 cycles

 The electronic state is 1-A.
 Alpha  occ. eigenvalues -- -101.65550 -10.34592 -10.32073 -10.29184 -10.28343
 Alpha  occ. eigenvalues --  -10.28341  -9.56318  -7.31693  -7.30740  -7.30714
 Alpha  occ. eigenvalues --   -0.95837  -0.89862  -0.78284  -0.77792  -0.75606
 Alpha  occ. eigenvalues --   -0.62977  -0.56026  -0.55476  -0.53735  -0.50751
 Alpha  occ. eigenvalues --   -0.49483  -0.46166  -0.46016  -0.45134  -0.43304
 Alpha  occ. eigenvalues --   -0.41593  -0.41215  -0.36751  -0.36742
 Alpha virt. eigenvalues --    0.11302   0.13800   0.16984   0.17392   0.19059
 Alpha virt. eigenvalues --    0.19937   0.19981   0.21252   0.22458   0.25244
 Alpha virt. eigenvalues --    0.26190   0.26787   0.26985   0.28800   0.30413

 Mulliken charges:
               1
     1  C   -0.271443
     2  C   -0.262195
     3  C   -0.278031
     4  C   -0.271443
     5  C   -0.125038
     6  Cl  -0.163958
     7  H    0.116603
     8  H    0.130462
     9  H    0.112455
    10  H    0.124295
    11  H    0.117455
    12  H    0.117455
    13  H    0.130462
    14  H    0.116603
    15  H    0.112455
    16  H    0.146932
    17  H    0.146932
 Sum of Mulliken charges =  -0.00000

 Dipole moment (field-independent basis, Debye):
    X=             -1.7898    Y=              0.7370    Z=              0.0000  Tot=              1.9356
  Exact polarizability:  69.740  -2.927  59.331  -0.000   0.000  57.999
 Approx polarizability:  72.686  -4.225  64.435  -0.000   0.000  61.822
   1 Symmetry operations used in ECPInt.
 ECPInt:  NShTT=    1830 NPrTT=    7624 LenC2=    1823 LenP2D=    6211.
 LDataN:  DoStor=T MaxTD1= 6 Len=  172
 Calling FoFJK, ICntrl=    100127 FMM=F ISym2X=0 I1Cent= 0 IOpClX= 0 NMat=1 NMatS=1 NMatT=0.
 Full mass-weighted force constant matrix:
 Low frequencies ---   -8.8422   -1.1702    0.0041    0.0044    0.0045    3.6546
 Low frequencies ---  114.2003  217.4351  228.7099
 Diagonal vibrational polarizability:

                      1                      2                      3
                      A                      A                      A
 Frequencies --    114.1988               217.4347               228.7098
 Red. masses --      2.5413                 4.0827                 1.0854
 Frc consts  --      0.0195                 0.1137                 0.0335
 IR Inten    --      1.1715                 1.5752                 0.1763

                      4                      5                      6
                      A                      A                      A
 Frequencies --    281.2878               285.3782               328.8860
 Red. masses --      1.0671                 1.0390                 2.8638
 Frc consts  --      0.0497                 0.0499                 0.1825
 IR Inten    --      0.0746                 0.1574                 1.1006

                      7                      8                      9
                      A                      A                      A
 Frequencies --    343.8034               406.5771               426.4152
 Red. masses --      2.0957                 2.3705                 2.0269
 Frc consts  --      0.1460                 0.2309                 0.2171
 IR Inten    --      0.0531                 0.4190                 0.0377

                     10                     11                     12
                      A                      A                      A
 Frequencies --    484.7487               745.7788               795.6712
 Red. masses --      2.5781                 4.0497                 4.4075
 Frc consts  --      0.3569                 1.3271                 1.6440
 IR Inten    --      1.6729                 7.6688                24.6441

                     13                     14                     15
                      A                      A                      A
 Frequencies --    900.5512               940.4481               963.0043
 Red. masses --      1.5720                 2.0154                 1.5526
 Frc consts  --      0.7511                 1.0502                 0.8483
 IR Inten    --      0.9069                15.3655                 1.1711

                     16                     17                     18
                      A                      A                      A
 Frequencies --    963.3389               975.1751              1055.8237
 Red. masses --      1.5145                 1.2050                 1.4174
 Frc consts  --      0.8281                 0.6752                 0.9309
 IR Inten    --      0.7316                 0.0169                 0.2789

                     19                     20                     21
                      A                      A                      A
 Frequencies --   1065.4411              1177.0621              1243.5104
 Red. masses --      1.3743                 1.2011                 1.9955
 Frc consts  --      0.9191                 0.9805                 1.8180
 IR Inten    --      0.0023                 1.6076                10.6456

                     22                     23                     24
                      A                      A                      A
 Frequencies --   1304.5615              1324.8092              1340.9722
 Red. masses --      2.7358                 1.8693                 1.4249
 Frc consts  --      2.7432                 1.9330                 1.5096
 IR Inten    --      6.3137                 0.8457                10.8923

                     25                     26                     27
                      A                      A                      A
 Frequencies --   1410.0583              1413.2156              1436.8295
 Red. masses --      1.2827                 1.3316                 1.2289
 Frc consts  --      1.5026                 1.5668                 1.4948
 IR Inten    --      9.3932                14.3074                10.1995

                     28                     29                     30
                      A                      A                      A
 Frequencies --   1474.2784              1474.6205              1483.0322
 Red. masses --      1.0835                 1.0440                 1.0475
 Frc consts  --      1.3875                 1.3376                 1.3574
 IR Inten    --      2.6959                 0.1528                 0.2816

                     31                     32                     33
                      A                      A                      A
 Frequencies --   1483.7211              1503.4827              1505.2098
 Red. masses --      1.0419                 1.0685                 1.0718
 Frc consts  --      1.3515                 1.4230                 1.4308
 IR Inten    --      0.0381                 7.6033                13.7322

                     34                     35                     36
                      A                      A                      A
 Frequencies --   1517.3505              3023.5102              3028.6612
 Red. masses --      1.0740                 1.0371                 1.0377
 Frc consts  --      1.4569                 5.5861                 5.6083
 IR Inten    --     19.6590                22.3106                32.8400

                     37                     38                     39
                      A                      A                      A
 Frequencies --   3032.9157              3082.2309              3114.4425
 Red. masses --      1.0387                 1.0597                 1.1052
 Frc consts  --      5.6296                 5.9316                 6.3161
 IR Inten    --      8.6344                17.5098                 8.7550

                     40                     41                     42
                      A                      A                      A
 Frequencies --   3117.7546              3118.5270              3123.3945
 Red. masses --      1.1048                 1.1045                 1.1038
 Frc consts  --      6.3271                 6.3289                 6.3445
 IR Inten    --     22.0840                 9.3896                39.7909

                     43                     44                     45
                      A                      A                      A
 Frequencies --   3136.8158              3139.2191              3153.2915
 Red. masses --      1.1046                 1.1038                 1.1116
 Frc consts  --      6.4039                 6.4088                 6.5120
 IR Inten    --      1.3816                22.1387                10.6816

 Optimization completed.
    -- Stationary point found.
 Normal termination of Gaussian 16 at Mon Feb  6 10:19:46 2023.
