 Gaussian 16, Revision B.01,
 Gaussian 16:  ES64L-G16RevB.01 20-Dec-2017

 ----------------------------------------------------------------------
 #T wB97XD/def2svpp opt=tight freq int(grid=ultrafine) scf=(verytight,q
 c)
 ----------------------------------------------------------------------
 --------------
 Comment gs min
 --------------
 Symbolic Z-matrix:
 Charge =  0 Multiplicity = 1

 SCF Done:  E(RwB97XD) =  -498.049570240     a.u. after    7 cycles
 SCF Done:  E(RwB97XD) =  -498.054441734     a.u. after    9 cycles
 SCF Done:  E(RwB97XD) =  -498.054766281     a.u. after    9 cycles
 SCF Done:  E(RwB97XD) =  -498.055520519     a.u. after    9 cycles
 SCF Done:  E(RwB97XD) =  -498.055733689     a.u. after    9 cycles
 SCF Done:  E(RwB97XD) =  -498.056009153     a.u. after    7 cycles
 SCF Done:  E(RwB97XD) =  -498.056130857     a.u. after    8 cycles
 SCF Done:  E(RwB97XD) =  -498.056194323     a.u. after    5 cycles
 SCF Done:  E(RwB97XD) =  -498.056220374     a.u. after    4 cycles
 SCF Done:  E(RwB97XD) =  -498.056230453     a.u. after    4 cycles
 SCF Done:  E(RwB97XD) =  -498.056234325     a.u. after    3 cycles
 SCF Done:  E(RwB97XD) =  -498.056237909     a.u. after    3 cycles
 SCF Done:  E(RwB97XD) =  -498.056238484     a.u. after    2 cycles
 SCF Done:  E(RwB97XD) =  -498.056238583     a.u. after    2 cycles
 SCF Done:  E(RwB97XD) =  -498.056238598     a.u. after    2 cycles
 SCF Done:  E(RwB97XD) =  -498.056238613     a.u. after    2 cycles
 SCF Done:  E(RwB97XD) =  -498.056238610     a.u. after    2 cycles
 SCF Done:  E(RwB97XD) =  -498.056238600     a.u. after    2 cycles
 SCF Done:  E(RwB97XD) =  -498.056238613     a.u. after    2 cycles
 Optimization completed.
    -- Stationary point found.

 1\1\GINC-C564\FOpt\RwB97XD\def2SVPP\C5H12O4\PETERCHAO1\04-Aug-2022\0\\
 #T wB97XD/def2svpp opt=tight freq int(grid=ultrafine) scf=(verytight,q
 c)\\Comment gs min\\0,1\O,2.6394594444,1.024797075,0.7256426162\C,2.37
 979759,-0.0687910919,-0.1490746872\C,2.9600317434,-1.3454911335,0.4655
 245926\C,2.4756770811,-1.4988031028,1.9237257579\O,1.1095698963,-1.217
 9433664,2.0904136809\C,2.4469934665,-2.5419611895,-0.3536697716\O,2.60
 57580405,-2.407158983,-1.7454524019\C,4.4988256505,-1.3011024387,0.450
 5882439\O,5.0479945671,-0.2421107753,1.1815691626\H,2.363359309,1.8474

 Normal termination of Gaussian 16 at Thu Aug  4 16:25:33 2022.

 ---------------------------------------------------------------------
 #T Geom=AllCheck Guess=TCheck SCRF=Check GenChk RwB97XD/def2SVPP Freq
 ---------------------------------------------------------------------
 Structure from the checkpoint file:  "/scratch/user/peterchao1/peterchao1/6097791_1659647563000000718699040/Gau-209705.chk"
 --------------
 Comment gs min
 --------------
 Charge =  0 Multiplicity = 1

                         Standard orientation:
 ---------------------------------------------------------------------
 Center     Atomic      Atomic             Coordinates (Angstroms)
 Number     Number       Type             X           Y           Z
 ---------------------------------------------------------------------
      1          8           0       -1.595663   -0.136885    1.345371
      2          6           0       -0.190337    0.079421    1.263139
      3          6           0        0.238734    0.006465   -0.204834
      4          6           0       -0.652479    0.929877   -1.063614
      5          8           0       -0.881497    2.186123   -0.478539
      6          6           0        1.693454    0.497159   -0.298837
      7          8           0        2.571470   -0.100063    0.624663
      8          6           0        0.120301   -1.435421   -0.731159
      9          8           0       -1.177481   -1.956159   -0.686705
     10          1           0       -1.858000   -0.189281    2.273729
     11          1           0        0.360612   -0.678330    1.848999
     12          1           0        0.068661    1.073182    1.673517
     13          1           0       -1.599626    0.409413   -1.288537
     14          1           0       -0.148064    1.116630   -2.028191
     15          1           0       -1.560071    2.069496    0.200822
     16          1           0        1.709230    1.577974   -0.084555
     17          1           0        2.052633    0.364398   -1.340852
     18          1           0        2.731180   -1.016553    0.365503
     19          1           0        0.823083   -2.081895   -0.157677
     20          1           0        0.448324   -1.464277   -1.787395
     21          1           0       -1.620633   -1.589898    0.098161
 ---------------------------------------------------------------------

 SCF Done:  E(RwB97XD) =  -498.056238613     a.u. after    1 cycles

 The electronic state is 1-A.
 Alpha  occ. eigenvalues --  -19.28723 -19.25816 -19.24835 -19.23502 -10.35183
 Alpha  occ. eigenvalues --  -10.34196 -10.33917 -10.33397 -10.30804  -1.14641
 Alpha  occ. eigenvalues --   -1.12128  -1.11109  -1.10192  -0.90485  -0.78434
 Alpha  occ. eigenvalues --   -0.76604  -0.75958  -0.66355  -0.63966  -0.61118
 Alpha  occ. eigenvalues --   -0.60859  -0.58880  -0.54505  -0.53702  -0.52415
 Alpha  occ. eigenvalues --   -0.51697  -0.50290  -0.49105  -0.47221  -0.44872
 Alpha  occ. eigenvalues --   -0.43495  -0.40899  -0.40202  -0.37634  -0.36821
 Alpha  occ. eigenvalues --   -0.35004  -0.33710
 Alpha virt. eigenvalues --    0.10608   0.12041   0.15678   0.16462   0.18271
 Alpha virt. eigenvalues --    0.19097   0.19986   0.22173   0.22622   0.23355
 Alpha virt. eigenvalues --    0.24400   0.24756   0.27013   0.29172   0.30398

 Mulliken charges:
               1
     1  O   -0.510496
     2  C    0.023660
     3  C   -0.381656
     4  C    0.066255
     5  O   -0.490701
     6  C    0.053812
     7  O   -0.485814
     8  C    0.089751
     9  O   -0.502330
    10  H    0.335028
    11  H    0.109423
    12  H    0.114521
    13  H    0.116843
    14  H    0.101762
    15  H    0.324212
    16  H    0.126101
    17  H    0.098980
    18  H    0.320511
    19  H    0.063156
    20  H    0.097717
    21  H    0.329266
 Sum of Mulliken charges =  -0.00000

 Dipole moment (field-independent basis, Debye):
    X=             -0.1862    Y=             -0.6726    Z=              2.2904  Tot=              2.3944
  Exact polarizability:  65.241  -1.343  62.678  -2.461   0.621  64.298
 Approx polarizability:  68.973  -0.602  67.465  -1.912   1.252  68.867
   1 Symmetry operations used in ECPInt.
 ECPInt:  NShTT=    3081 NPrTT=   12399 LenC2=    3050 LenP2D=    9712.
 LDataN:  DoStor=T MaxTD1= 6 Len=  172
 Calling FoFJK, ICntrl=    100127 FMM=F ISym2X=0 I1Cent= 0 IOpClX= 0 NMat=1 NMatS=1 NMatT=0.
 Full mass-weighted force constant matrix:
 Low frequencies ---   -2.9553    0.0007    0.0011    0.0011    7.8522    9.2164
 Low frequencies ---   68.5762  103.8315  129.1004
 Diagonal vibrational polarizability:

                      1                      2                      3
                      A                      A                      A
 Frequencies --     68.5107               103.8291               129.0966
 Red. masses --      4.0580                 3.3657                 3.7489
 Frc consts  --      0.0112                 0.0214                 0.0368
 IR Inten    --      4.4674                 0.3314                 8.4635

                      4                      5                      6
                      A                      A                      A
 Frequencies --    164.8320               208.7409               239.3913
 Red. masses --      3.5654                 4.5566                 3.0298
 Frc consts  --      0.0571                 0.1170                 0.1023
 IR Inten    --      5.5000                 4.9123                 3.7595

                      7                      8                      9
                      A                      A                      A
 Frequencies --    302.0865               307.2929               344.9337
 Red. masses --      2.4885                 2.5953                 1.4515
 Frc consts  --      0.1338                 0.1444                 0.1017
 IR Inten    --     25.0152                48.8652                85.1826

                     10                     11                     12
                      A                      A                      A
 Frequencies --    353.1846               389.3650               406.7145
 Red. masses --      1.7528                 1.7367                 1.9835
 Frc consts  --      0.1288                 0.1551                 0.1933
 IR Inten    --     22.9960                33.2531                20.5304

                     13                     14                     15
                      A                      A                      A
 Frequencies --    454.4396               469.6769               571.3254
 Red. masses --      2.2273                 1.3148                 1.4307
 Frc consts  --      0.2710                 0.1709                 0.2752
 IR Inten    --     32.6102                81.6531                82.8470

                     16                     17                     18
                      A                      A                      A
 Frequencies --    600.9976               642.7850               774.3823
 Red. masses --      1.8919                 4.3540                 3.2221
 Frc consts  --      0.4026                 1.0599                 1.1384
 IR Inten    --    142.1045                33.9015                 8.2648

                     19                     20                     21
                      A                      A                      A
 Frequencies --    911.5078               923.2086               956.6721
 Red. masses --      1.6277                 1.7057                 1.6505
 Frc consts  --      0.7968                 0.8566                 0.8900
 IR Inten    --     12.6764                 2.6674                 3.5169

                     22                     23                     24
                      A                      A                      A
 Frequencies --    998.4368              1100.4071              1116.2702
 Red. masses --      1.5504                 4.7943                 3.2871
 Frc consts  --      0.9106                 3.4205                 2.4132
 IR Inten    --     10.1269                15.2126               120.0064

                     25                     26                     27
                      A                      A                      A
 Frequencies --   1142.7325              1148.7955              1156.2968
 Red. masses --      4.7887                 1.7976                 3.1396
 Frc consts  --      3.6843                 1.3978                 2.4732
 IR Inten    --    108.7988               108.3688                20.6674

                     28                     29                     30
                      A                      A                      A
 Frequencies --   1191.0032              1195.2070              1249.5951
 Red. masses --      1.8692                 1.5751                 1.2694
 Frc consts  --      1.5622                 1.3257                 1.1678
 IR Inten    --     50.7971                30.4064                13.6127

                     31                     32                     33
                      A                      A                      A
 Frequencies --   1259.0909              1299.9229              1326.8263
 Red. masses --      1.2261                 1.4972                 1.4529
 Frc consts  --      1.1452                 1.4906                 1.5070
 IR Inten    --      2.0595                52.1807                30.5742

                     34                     35                     36
                      A                      A                      A
 Frequencies --   1334.7130              1392.7988              1407.5213
 Red. masses --      1.5962                 1.2863                 1.3138
 Frc consts  --      1.6754                 1.4702                 1.5336
 IR Inten    --      6.2878                 2.7809                 5.6227

                     37                     38                     39
                      A                      A                      A
 Frequencies --   1417.5349              1431.5873              1435.4507
 Red. masses --      1.2201                 1.3263                 1.3083
 Frc consts  --      1.4445                 1.6015                 1.5883
 IR Inten    --     29.5167                17.7929                52.0115

                     40                     41                     42
                      A                      A                      A
 Frequencies --   1475.9342              1489.8044              1509.7440
 Red. masses --      1.5009                 1.2487                 1.0908
 Frc consts  --      1.9263                 1.6329                 1.4648
 IR Inten    --     21.0342                68.8753                 7.6961

                     43                     44                     45
                      A                      A                      A
 Frequencies --   1511.7988              1516.6608              1528.8815
 Red. masses --      1.0938                 1.0745                 1.0930
 Frc consts  --      1.4729                 1.4562                 1.5053
 IR Inten    --      3.1168                18.0608                 3.5402

                     46                     47                     48
                      A                      A                      A
 Frequencies --   2949.9988              3000.7164              3036.4225
 Red. masses --      1.0717                 1.0712                 1.0597
 Frc consts  --      5.4952                 5.6830                 5.7563
 IR Inten    --     95.3978                42.5985                35.6712

                     49                     50                     51
                      A                      A                      A
 Frequencies --   3052.2447              3059.4064              3092.6022
 Red. masses --      1.0624                 1.0923                 1.1097
 Frc consts  --      5.8316                 6.0240                 6.2532
 IR Inten    --     17.1862                61.2526                26.1096

                     52                     53                     54
                      A                      A                      A
 Frequencies --   3111.4683              3120.1266              3663.6745
 Red. masses --      1.1098                 1.0983                 1.0661
 Frc consts  --      6.3306                 6.2996                 8.4311
 IR Inten    --     21.9037                15.5921               171.4933

                     55                     56                     57
                      A                      A                      A
 Frequencies --   3770.6160              3785.0251              3785.5458
 Red. masses --      1.0658                 1.0662                 1.0665
 Frc consts  --      8.9283                 8.9998                 9.0048
 IR Inten    --     52.5037                36.7826                42.5290

                           ! Non-Optimized Parameters !

 1\1\GINC-C564\Freq\RwB97XD\def2SVPP\C5H12O4\PETERCHAO1\04-Aug-2022\0\\
 #T Geom=AllCheck Guess=TCheck SCRF=Check GenChk RwB97XD/def2SVPP Freq\
 \Comment gs min\\0,1\O,2.6394594444,1.024797075,0.7256426162\C,2.37979
 759,-0.0687910919,-0.1490746872\C,2.9600317434,-1.3454911335,0.4655245
 926\C,2.4756770811,-1.4988031028,1.9237257579\O,1.1095698963,-1.217943
 3664,2.0904136809\C,2.4469934665,-2.5419611895,-0.3536697716\O,2.60575
 80405,-2.407158983,-1.7454524019\C,4.4988256505,-1.3011024387,0.450588
 2439\O,5.0479945671,-0.2421107753,1.1815691626\H,2.363359309,1.8474297

 Normal termination of Gaussian 16 at Thu Aug  4 16:27:59 2022.
