 Gaussian 16, Revision B.01,
 Gaussian 16:  ES64L-G16RevB.01 20-Dec-2017

 --------------------------------------------------------------
 #T wB97XD//def2svpp Volume=tight Geom=AllCheckpoint Guess=Read
 --------------------------------------------------------------
 Structure from the checkpoint file:  "19.chk"
 -------
 Monomer
 -------
 Charge =  0 Multiplicity = 1

                         Standard orientation:
 ---------------------------------------------------------------------
 Center     Atomic      Atomic             Coordinates (Angstroms)
 Number     Number       Type             X           Y           Z
 ---------------------------------------------------------------------
      1          6           0       -0.804217   -0.893311   -1.257622
      2          6           0       -0.778501   -0.015528   -0.000000
      3          6           0       -2.000704    0.918102    0.000016
      4          6           0       -0.804224   -0.893366    1.257584
      5          6           0        0.459469    0.892412    0.000022
      6         17           0        2.027884    0.007768    0.000000
      7          1           0       -1.716572   -1.515050   -1.274894
      8          1           0        0.069787   -1.564830   -1.291956
      9          1           0       -0.796627   -0.276240   -2.174308
     10          1           0       -2.933565    0.327641    0.000001
     11          1           0       -2.013513    1.566758   -0.894313
     12          1           0       -2.013518    1.566720    0.894374
     13          1           0        0.069781   -1.564884    1.291896
     14          1           0       -1.716577   -1.515108    1.274822
     15          1           0       -0.796643   -0.276334    2.174297
     16          1           0        0.471240    1.534684    0.894389
     17          1           0        0.471241    1.534727   -0.894315
 ---------------------------------------------------------------------

 SCF Done:  E(RwB97XD) =  -657.002913433     A.U. after    1 cycles

 The electronic state is 1-A.
 Alpha  occ. eigenvalues -- -101.65550 -10.34592 -10.32073 -10.29184 -10.28343
 Alpha  occ. eigenvalues --  -10.28341  -9.56318  -7.31693  -7.30740  -7.30714
 Alpha  occ. eigenvalues --   -0.95837  -0.89862  -0.78284  -0.77792  -0.75606
 Alpha  occ. eigenvalues --   -0.62977  -0.56026  -0.55476  -0.53735  -0.50751
 Alpha  occ. eigenvalues --   -0.49483  -0.46166  -0.46016  -0.45134  -0.43304
 Alpha  occ. eigenvalues --   -0.41593  -0.41215  -0.36751  -0.36742
 Alpha virt. eigenvalues --    0.11302   0.13800   0.16984   0.17392   0.19059
 Alpha virt. eigenvalues --    0.19937   0.19981   0.21252   0.22458   0.25244
 Alpha virt. eigenvalues --    0.26190   0.26787   0.26985   0.28800   0.30413

 Mulliken charges:
               1
     1  C   -0.271443
     2  C   -0.262195
     3  C   -0.278031
     4  C   -0.271443
     5  C   -0.125038
     6  Cl  -0.163958
     7  H    0.116603
     8  H    0.130462
     9  H    0.112455
    10  H    0.124295
    11  H    0.117455
    12  H    0.117455
    13  H    0.130462
    14  H    0.116603
    15  H    0.112455
    16  H    0.146932
    17  H    0.146932
 Sum of Mulliken charges =  -0.00000

 Dipole moment (field-independent basis, Debye):
    X=             -1.7898    Y=              0.7370    Z=              0.0000  Tot=              1.9356
 Evaluate density.
 Using the total density.
 Monte-Carlo method of calculating molar volume:
 based on  0.001 e/bohr**3 density envelope.
 Number of points per bohr**3 =  100 CutOff= 1.00D-04
 Using the SCF density.
 There are      1867 points.  Will hold      1867 in memory.
 LenV=  1048339069 MDV=  1048576000.
 Box volume = 6511.512 fraction occupied=0.153
 Integrated density= 3.7936040982002282D+01 error=-2.0063959017997718D+01

 Normal termination of Gaussian 16 at Thu Feb  2 12:59:17 2023.
