 Gaussian 16, Revision B.01,
 Gaussian 16:  ES64L-G16RevB.01 20-Dec-2017

 --------------------------------------------------------------
 #T wB97XD//def2svpp Volume=tight Geom=AllCheckpoint Guess=Read
 --------------------------------------------------------------
 Structure from the checkpoint file:  "42.chk"
 -------
 Monomer
 -------
 Charge =  0 Multiplicity = 1

                         Standard orientation:
 ---------------------------------------------------------------------
 Center     Atomic      Atomic             Coordinates (Angstroms)
 Number     Number       Type             X           Y           Z
 ---------------------------------------------------------------------
      1          6           0        0.140572    1.355588   -1.269036
      2          6           0       -0.000001    0.540807   -0.000003
      3          6           0       -0.140574    1.355610    1.269016
      4          7           0       -1.189343   -0.403938   -0.180808
      5          8           0       -2.173547   -0.193164    0.481028
      6          8           0       -1.056508   -1.258777   -1.021600
      7          7           0        1.189343   -0.403933    0.180814
      8          8           0        2.173545   -0.193170   -0.481028
      9          8           0        1.056513   -1.258758    1.021621
     10          1           0       -0.775758    1.952061   -1.410261
     11          1           0        0.289139    0.699697   -2.138863
     12          1           0        1.000375    2.035213   -1.180837
     13          1           0       -1.000375    2.035235    1.180804
     14          1           0        0.775757    1.952084    1.410232
     15          1           0       -0.289142    0.699735    2.138854
 ---------------------------------------------------------------------

 SCF Done:  E(RwB97XD) =  -527.563188366     A.U. after    1 cycles

 The electronic state is 1-A.
 Alpha  occ. eigenvalues --  -19.31694 -19.31693 -19.31404 -19.31399 -14.70826
 Alpha  occ. eigenvalues --  -14.70824 -10.43560 -10.33455 -10.33452  -1.37341
 Alpha  occ. eigenvalues --   -1.35862  -1.19101  -1.18894  -1.00292  -0.83905
 Alpha  occ. eigenvalues --   -0.83230  -0.80962  -0.68476  -0.68181  -0.66890
 Alpha  occ. eigenvalues --   -0.64708  -0.62704  -0.62348  -0.60694  -0.54822
 Alpha  occ. eigenvalues --   -0.53476  -0.53112  -0.52271  -0.48884  -0.42766
 Alpha  occ. eigenvalues --   -0.42449  -0.41928  -0.41291  -0.40909  -0.40294
 Alpha virt. eigenvalues --   -0.01636  -0.01298   0.12230   0.13604   0.15854
 Alpha virt. eigenvalues --    0.17586   0.19826   0.21142   0.22181   0.23304
 Alpha virt. eigenvalues --    0.24559   0.26665   0.35246   0.35784   0.43140

 Mulliken charges:
               1
     1  C   -0.237048
     2  C   -0.088961
     3  C   -0.237048
     4  N    0.239531
     5  O   -0.216208
     6  O   -0.221571
     7  N    0.239531
     8  O   -0.216208
     9  O   -0.221571
    10  H    0.151803
    11  H    0.168370
    12  H    0.159603
    13  H    0.159603
    14  H    0.151803
    15  H    0.168370
 Sum of Mulliken charges =   0.00000

 Dipole moment (field-independent basis, Debye):
    X=             -0.0000    Y=              4.3522    Z=             -0.0000  Tot=              4.3522
 Evaluate density.
 Using the total density.
 Monte-Carlo method of calculating molar volume:
 based on  0.001 e/bohr**3 density envelope.
 Number of points per bohr**3 =  100 CutOff= 1.00D-04
 Using the SCF density.
 There are      1745 points.  Will hold      1745 in memory.
 LenV=  1048292036 MDV=  1048576000.
 Box volume = 5314.405 fraction occupied=0.178
 Integrated density= 4.5358051904817295D+01 error=-2.4641948095182705D+01

 Normal termination of Gaussian 16 at Tue Jun 27 12:16:36 2023.
