 Gaussian 16, Revision B.01,
 Gaussian 16:  ES64L-G16RevB.01 20-Dec-2017

 --------------------------------------------------------------
 #T wB97XD//def2svpp Volume=tight Geom=AllCheckpoint Guess=Read
 --------------------------------------------------------------
 Structure from the checkpoint file:  "monomer.chk"
 -------
 Monomer
 -------
 Charge =  0 Multiplicity = 1

                         Standard orientation:
 ---------------------------------------------------------------------
 Center     Atomic      Atomic             Coordinates (Angstroms)
 Number     Number       Type             X           Y           Z
 ---------------------------------------------------------------------
      1          8           0        0.000007   -1.608297    1.684417
      2          6           0        0.000003   -1.546856    0.353026
      3          8           0        0.000002   -2.516219   -0.353819
      4          6           0        0.000001   -0.111221   -0.197782
      5          6           0       -1.231269    0.025063   -1.110101
      6         17           0       -2.769063   -0.201505   -0.218989
      7          6           0       -0.000001    0.920869    0.936053
      8         17           0       -0.000009    2.608082    0.319422
      9          6           0        1.231270    0.025067   -1.110102
     10         17           0        2.769065   -0.201493   -0.218989
     11          1           0        0.000008   -2.549351    1.937273
     12          1           0       -1.203688   -0.743389   -1.894925
     13          1           0       -1.262511    1.026187   -1.562406
     14          1           0        0.894775    0.807955    1.560744
     15          1           0       -0.894774    0.807948    1.560747
     16          1           0        1.262508    1.026191   -1.562408
     17          1           0        1.203692   -0.743386   -1.894924
 ---------------------------------------------------------------------

 SCF Done:  E(RwB97XD) =  -1725.00404782     A.U. after    1 cycles

 The electronic state is 1-A.
 Alpha  occ. eigenvalues -- -101.67904-101.67904-101.67552 -19.32883 -19.26810
 Alpha  occ. eigenvalues --  -10.45690 -10.37305 -10.37304 -10.36712 -10.36372
 Alpha  occ. eigenvalues --   -9.58662  -9.58662  -9.58311  -7.34058  -7.34058
 Alpha  occ. eigenvalues --   -7.33692  -7.33075  -7.33075  -7.33041  -7.33041
 Alpha  occ. eigenvalues --   -7.32735  -7.32696  -1.23136  -1.13419  -1.00661
 Alpha  occ. eigenvalues --   -0.96372  -0.95288  -0.89322  -0.80065  -0.76344
 Alpha  occ. eigenvalues --   -0.75752  -0.68170  -0.63021  -0.60744  -0.59365
 Alpha  occ. eigenvalues --   -0.57102  -0.55360  -0.53904  -0.52788  -0.50914
 Alpha  occ. eigenvalues --   -0.50548  -0.49173  -0.48460  -0.47529  -0.43008
 Alpha  occ. eigenvalues --   -0.40876  -0.39315  -0.39065  -0.39008  -0.38625
 Alpha  occ. eigenvalues --   -0.38159  -0.38097
 Alpha virt. eigenvalues --    0.06155   0.07633   0.10905   0.12707   0.14155
 Alpha virt. eigenvalues --    0.14912   0.17237   0.18165   0.18550   0.20277
 Alpha virt. eigenvalues --    0.23145   0.25120   0.25532   0.27554   0.28131

 Mulliken charges:
               1
     1  O   -0.342779
     2  C    0.276028
     3  O   -0.217696
     4  C   -0.358952
     5  C   -0.131563
     6  Cl  -0.134421
     7  C   -0.085588
     8  Cl  -0.147565
     9  C   -0.131563
    10  Cl  -0.134421
    11  H    0.350155
    12  H    0.179771
    13  H    0.174646
    14  H    0.174765
    15  H    0.174765
    16  H    0.174646
    17  H    0.179771
 Sum of Mulliken charges =  -0.00000

 Dipole moment (field-independent basis, Debye):
    X=              0.0000    Y=             -0.4872    Z=              0.1870  Tot=              0.5218
 Evaluate density.
 Using the total density.
 Monte-Carlo method of calculating molar volume:
 based on  0.001 e/bohr**3 density envelope.
 Number of points per bohr**3 =  100 CutOff= 1.00D-04
 Using the SCF density.
 There are      2195 points.  Will hold      2195 in memory.
 LenV=  1048151463 MDV=  1048576000.
 Box volume =10581.631 fraction occupied=0.136
 Integrated density= 7.3010903256305667D+01 error=-3.0989096743694333D+01

 1\1\GINC-C761\SP\RwB97XD\def2SVPP\C5H7Cl3O2\PETERCHAO1\02-Apr-2024\0\\
 #T wB97XD//def2svpp Volume=tight Geom=AllCheckpoint Guess=Read\\Monome
 r\\0,1\O,0,-0.0025354929,1.5890749107,1.6708162272\C,0,-0.0021524155,1
 .5273450185,0.3394388963\O,0,-0.0031993541,2.49655458,-0.367616511\C,0
 ,-0.0002351387,0.091592462,-0.2110575911\C,0,1.2314114161,-0.043354612
 3,-1.1230669721\Cl,0,2.7687189827,0.1853233401,-0.2316547243\C,0,0.000
 7955203,-0.9402513661,0.9230021785\Cl,0,0.0030472075,-2.6275967169,0.3
 067377961\C,0,-1.2311259678,-0.046428943,-1.1236269973\Cl,0,-2.7694048

 Normal termination of Gaussian 16 at Tue Apr  2 13:54:56 2024.
