 Gaussian 16, Revision B.01,
 Gaussian 16:  ES64L-G16RevB.01 20-Dec-2017

 ----------------------------------------------------------------------
 #T wB97XD/def2svpp opt=tight freq int(grid=ultrafine) scf=(verytight,q
 c) Volume=tight
 ----------------------------------------------------------------------
 -------
 Monomer
 -------
 Symbolic Z-matrix:
 Charge =  0 Multiplicity = 1

 SCF Done:  E(RwB97XD) =  -403.090338106     a.u. after    8 cycles
 SCF Done:  E(RwB97XD) =  -403.091941218     a.u. after    7 cycles
 SCF Done:  E(RwB97XD) =  -403.091613488     a.u. after    8 cycles
 SCF Done:  E(RwB97XD) =  -403.092307888     a.u. after    8 cycles
 SCF Done:  E(RwB97XD) =  -403.092087999     a.u. after    9 cycles
 SCF Done:  E(RwB97XD) =  -403.092724150     a.u. after    6 cycles
 SCF Done:  E(RwB97XD) =  -403.092977332     a.u. after    9 cycles
 SCF Done:  E(RwB97XD) =  -403.093041838     a.u. after    9 cycles
 SCF Done:  E(RwB97XD) =  -403.093104494     a.u. after    5 cycles
 SCF Done:  E(RwB97XD) =  -403.093125597     a.u. after    5 cycles
 SCF Done:  E(RwB97XD) =  -403.093133405     a.u. after    3 cycles
 SCF Done:  E(RwB97XD) =  -403.093134887     a.u. after    3 cycles
 SCF Done:  E(RwB97XD) =  -403.093135281     a.u. after    2 cycles
 SCF Done:  E(RwB97XD) =  -403.093135298     a.u. after    2 cycles
 SCF Done:  E(RwB97XD) =  -403.093135317     a.u. after    2 cycles
 SCF Done:  E(RwB97XD) =  -403.093135319     a.u. after    2 cycles
 SCF Done:  E(RwB97XD) =  -403.093135319     a.u. after    2 cycles
 SCF Done:  E(RwB97XD) =  -403.093135319     a.u. after    2 cycles
 SCF Done:  E(RwB97XD) =  -403.093135319     a.u. after    2 cycles
 Optimization completed.
    -- Stationary point found.
 Normal termination of Gaussian 16 at Fri Mar 29 15:45:35 2024.

 ---------------------------------------------------------------------
 #T Geom=AllCheck Guess=TCheck SCRF=Check GenChk RwB97XD/def2SVPP Freq
 ---------------------------------------------------------------------
 Structure from the checkpoint file:  "monomer.chk"
 -------
 Monomer
 -------
 Charge =  0 Multiplicity = 1

                         Standard orientation:
 ---------------------------------------------------------------------
 Center     Atomic      Atomic             Coordinates (Angstroms)
 Number     Number       Type             X           Y           Z
 ---------------------------------------------------------------------
      1          6           0        2.583231   -0.036248   -0.622386
      2          6           0        1.665127    0.004288    0.599224
      3          6           0        0.153823    0.010686    0.321313
      4          7           0       -0.612628    0.156100    1.567918
      5          6           0       -0.255348    1.219053   -0.557144
      6          8           0       -1.652253    1.361510   -0.533512
      7          6           0       -0.288691   -1.294288   -0.369851
      8          8           0       -1.680511   -1.434284   -0.429812
      9          1           0        3.639273   -0.017666   -0.304686
     10          1           0        2.424078    0.831825   -1.284503
     11          1           0        2.436402   -0.950571   -1.221416
     12          1           0        1.901828    0.911758    1.187777
     13          1           0        1.887023   -0.856561    1.257284
     14          1           0       -0.039753    0.468419    2.348698
     15          1           0       -1.101094   -0.700877    1.820202
     16          1           0        0.049130    1.079238   -1.607328
     17          1           0        0.245268    2.136033   -0.177778
     18          1           0       -1.863224    1.254758    0.419662
     19          1           0        0.094912   -2.158420    0.203296
     20          1           0        0.167201   -1.340397   -1.380327
     21          1           0       -2.039394   -0.588997   -0.756647
 ---------------------------------------------------------------------

 SCF Done:  E(RwB97XD) =  -403.093135319     a.u. after    1 cycles

 The electronic state is 1-A.
 Alpha  occ. eigenvalues --  -19.24608 -19.23662 -14.43207 -10.33600 -10.33552
 Alpha  occ. eigenvalues --  -10.33364 -10.30492 -10.29493  -1.12221  -1.09773
 Alpha  occ. eigenvalues --   -0.98943  -0.88099  -0.81084  -0.76031  -0.72841
 Alpha  occ. eigenvalues --   -0.66849  -0.61583  -0.59738  -0.57345  -0.55628
 Alpha  occ. eigenvalues --   -0.54005  -0.52051  -0.50441  -0.49155  -0.48244
 Alpha  occ. eigenvalues --   -0.46182  -0.45868  -0.44507  -0.41355  -0.40039
 Alpha  occ. eigenvalues --   -0.35422  -0.35059  -0.32730
 Alpha virt. eigenvalues --    0.12484   0.13902   0.16077   0.16634   0.18728
 Alpha virt. eigenvalues --    0.19477   0.20110   0.20991   0.21812   0.22612
 Alpha virt. eigenvalues --    0.24004   0.24663   0.26164   0.28982   0.30079

 Mulliken charges:
               1
     1  C   -0.342252
     2  C   -0.176196
     3  C   -0.241309
     4  N   -0.504010
     5  C    0.093336
     6  O   -0.506306
     7  C    0.084870
     8  O   -0.505232
     9  H    0.128115
    10  H    0.129749
    11  H    0.130799
    12  H    0.103363
    13  H    0.104630
    14  H    0.230400
    15  H    0.243797
    16  H    0.107396
    17  H    0.086492
    18  H    0.323494
    19  H    0.094038
    20  H    0.095040
    21  H    0.319785
 Sum of Mulliken charges =  -0.00000

 Dipole moment (field-independent basis, Debye):
    X=              2.8590    Y=              0.2291    Z=              1.6859  Tot=              3.3269
  Exact polarizability:  70.600   0.414  62.896  -1.394  -0.555  63.150
 Approx polarizability:  71.581   0.688  67.666  -0.392  -0.800  69.101
   1 Symmetry operations used in ECPInt.
 ECPInt:  NShTT=    2775 NPrTT=   11169 LenC2=    2760 LenP2D=    8915.
 LDataN:  DoStor=T MaxTD1= 6 Len=  172
 Calling FoFJK, ICntrl=    100127 FMM=F ISym2X=0 I1Cent= 0 IOpClX= 0 NMat=1 NMatS=1 NMatT=0.
 Full mass-weighted force constant matrix:
 Low frequencies ---   -2.1637    0.0008    0.0008    0.0010    8.9643   13.0898
 Low frequencies ---   83.5950  133.0092  153.4386
 Diagonal vibrational polarizability:

                      1                      2                      3
                      A                      A                      A
 Frequencies --     83.5913               132.9932               153.4256
 Red. masses --      2.0442                 1.9405                 1.5354
 Frc consts  --      0.0084                 0.0202                 0.0213
 IR Inten    --      0.3328                20.9128                 3.0815

                      4                      5                      6
                      A                      A                      A
 Frequencies --    212.5413               222.8791               241.5410
 Red. masses --      2.3858                 3.8290                 1.3747
 Frc consts  --      0.0635                 0.1121                 0.0473
 IR Inten    --      5.8358                 3.4193                 0.0950

                      7                      8                      9
                      A                      A                      A
 Frequencies --    309.6866               325.2845               381.7792
 Red. masses --      2.6554                 2.7028                 2.5614
 Frc consts  --      0.1500                 0.1685                 0.2200
 IR Inten    --      3.5332                 1.3435                 0.9560

                     10                     11                     12
                      A                      A                      A
 Frequencies --    399.4763               477.5764               509.2309
 Red. masses --      2.9360                 2.7028                 2.0418
 Frc consts  --      0.2760                 0.3632                 0.3120
 IR Inten    --      2.5165                 3.1440                28.7094

                     13                     14                     15
                      A                      A                      A
 Frequencies --    584.9872               596.2553               789.1564
 Red. masses --      2.6169                 1.4021                 2.4480
 Frc consts  --      0.5276                 0.2937                 0.8982
 IR Inten    --     21.7905               168.1992                87.0863

                     16                     17                     18
                      A                      A                      A
 Frequencies --    797.5853               813.9756               865.9788
 Red. masses --      1.2993                 1.3184                 1.2412
 Frc consts  --      0.4870                 0.5147                 0.5484
 IR Inten    --      2.1640                62.1706               138.0225

                     19                     20                     21
                      A                      A                      A
 Frequencies --    947.1215               959.4789              1019.2092
 Red. masses --      1.7499                 1.5523                 1.6866
 Frc consts  --      0.9249                 0.8419                 1.0322
 IR Inten    --      3.4634                26.6090                 1.0829

                     22                     23                     24
                      A                      A                      A
 Frequencies --   1029.9473              1087.8803              1111.3164
 Red. masses --      1.5930                 2.0879                 1.7738
 Frc consts  --      0.9957                 1.4559                 1.2907
 IR Inten    --      3.8582                 7.4481                 9.7940

                     25                     26                     27
                      A                      A                      A
 Frequencies --   1143.5912              1163.5273              1198.7568
 Red. masses --      3.4440                 3.8954                 1.8256
 Frc consts  --      2.6537                 3.1071                 1.5457
 IR Inten    --     19.6568               178.1892                 4.0542

                     28                     29                     30
                      A                      A                      A
 Frequencies --   1208.8646              1248.6891              1287.1999
 Red. masses --      1.7644                 1.3718                 1.2529
 Frc consts  --      1.5192                 1.2602                 1.2231
 IR Inten    --      6.0590                25.3965                 2.3360

                     31                     32                     33
                      A                      A                      A
 Frequencies --   1310.8385              1370.0899              1375.4922
 Red. masses --      1.6149                 1.4277                 1.3454
 Frc consts  --      1.6350                 1.5790                 1.4997
 IR Inten    --      2.0110                 6.8795                 5.0671

                     34                     35                     36
                      A                      A                      A
 Frequencies --   1395.7885              1429.4371              1433.3516
 Red. masses --      1.4110                 1.5230                 1.3347
 Frc consts  --      1.6196                 1.8334                 1.6156
 IR Inten    --      1.7942                 8.0762                 6.2051

                     37                     38                     39
                      A                      A                      A
 Frequencies --   1470.8303              1482.6855              1493.0208
 Red. masses --      1.2785                 1.1576                 1.1290
 Frc consts  --      1.6295                 1.4994                 1.4828
 IR Inten    --     31.7200                62.2714                43.5002

                     40                     41                     42
                      A                      A                      A
 Frequencies --   1499.7006              1502.9963              1511.5853
 Red. masses --      1.0487                 1.1027                 1.0717
 Frc consts  --      1.3897                 1.4677                 1.4427
 IR Inten    --      9.5435                60.7138                 0.9220

                     43                     44                     45
                      A                      A                      A
 Frequencies --   1524.2808              1641.2829              2985.0799
 Red. masses --      1.0942                 1.1066                 1.0714
 Frc consts  --      1.4979                 1.7564                 5.6249
 IR Inten    --      0.0558                50.2369                64.9443

                     46                     47                     48
                      A                      A                      A
 Frequencies --   3002.0585              3023.0041              3042.8468
 Red. masses --      1.0662                 1.0632                 1.0386
 Frc consts  --      5.6614                 5.7247                 5.6656
 IR Inten    --     56.7141                28.2488                18.3922

                     49                     50                     51
                      A                      A                      A
 Frequencies --   3072.0582              3077.2521              3113.3390
 Red. masses --      1.1042                 1.1026                 1.0968
 Frc consts  --      6.1396                 6.1517                 6.2636
 IR Inten    --      4.5379                55.5071                30.0493

                     52                     53                     54
                      A                      A                      A
 Frequencies --   3133.9303              3138.6742              3521.4498
 Red. masses --      1.1041                 1.1050                 1.0521
 Frc consts  --      6.3890                 6.4137                 7.6871
 IR Inten    --     22.0853                20.8690                41.4272

                     55                     56                     57
                      A                      A                      A
 Frequencies --   3531.9554              3615.7122              3639.2641
 Red. masses --      1.0608                 1.0966                 1.0657
 Frc consts  --      7.7970                 8.4465                 8.3157
 IR Inten    --     68.5650                16.5689               150.1021

 Optimization completed.
    -- Stationary point found.
 Normal termination of Gaussian 16 at Fri Mar 29 15:47:37 2024.
