 Gaussian 16, Revision B.01,
 Gaussian 16:  ES64L-G16RevB.01 20-Dec-2017

 --------------------------------------------------------------
 #T wB97XD//def2svpp Volume=tight Geom=AllCheckpoint Guess=Read
 --------------------------------------------------------------
 Structure from the checkpoint file:  "0.chk"
 -----
 Dimer
 -----
 Charge =  0 Multiplicity = 1

                         Standard orientation:
 ---------------------------------------------------------------------
 Center     Atomic      Atomic             Coordinates (Angstroms)
 Number     Number       Type             X           Y           Z
 ---------------------------------------------------------------------
      1          6           0        2.053872   -1.612209    0.252464
      2          6           0        0.975851   -0.766054    0.927019
      3          6           0        0.000264    0.000158   -0.000197
      4          6           0        0.766732    0.974953   -0.927496
      5          6           0        1.612609    2.052382   -0.252336
      6          6           0       -0.766350   -0.975628   -0.927220
      7          6           0       -1.614036   -2.052014   -0.251944
      8          6           0       -0.974910    0.766571    0.926930
      9          6           0       -2.053602    1.612084    0.252467
     10          1           0        1.622577   -2.405830   -0.381621
     11          1           0        2.682354   -2.106387    1.013299
     12          1           0        2.723473   -1.004315   -0.380233
     13          1           0        1.464670   -0.036801    1.598364
     14          1           0        0.382344   -1.415519    1.595724
     15          1           0        0.037178    1.464080   -1.598075
     16          1           0        1.415753    0.381507   -1.597132
     17          1           0        1.004262    2.722596    0.379507
     18          1           0        2.108376    2.680377   -1.012823
     19          1           0        2.405088    1.620731    0.382835
     20          1           0       -0.036675   -1.465717   -1.596993
     21          1           0       -1.414573   -0.382607   -1.597739
     22          1           0       -2.109974   -2.679914   -1.012266
     23          1           0       -2.406534   -1.619191    0.382701
     24          1           0       -1.006748   -2.722447    0.380408
     25          1           0       -0.382123    1.415792    1.596989
     26          1           0       -1.463644    0.036645    1.597528
     27          1           0       -2.682543    2.106015    1.013182
     28          1           0       -2.722366    1.003328   -0.380029
     29          1           0       -1.623477    2.406198   -0.381743
 ---------------------------------------------------------------------

 SCF Done:  E(RwB97XD) =  -354.627006924     A.U. after    1 cycles

 The electronic state is 1-A.
 Alpha  occ. eigenvalues --  -10.29917 -10.28191 -10.28187 -10.28185 -10.28180
 Alpha  occ. eigenvalues --  -10.27803 -10.27800 -10.27799 -10.27798  -0.92569
 Alpha  occ. eigenvalues --   -0.83922  -0.83917  -0.82711  -0.76433  -0.72586
 Alpha  occ. eigenvalues --   -0.67946  -0.67942  -0.59889  -0.56376  -0.56374
 Alpha  occ. eigenvalues --   -0.54320  -0.49639  -0.48946  -0.48940  -0.48630
 Alpha  occ. eigenvalues --   -0.48368  -0.47566  -0.46003  -0.43728  -0.43723
 Alpha  occ. eigenvalues --   -0.42345  -0.42340  -0.41971  -0.40039  -0.37896
 Alpha  occ. eigenvalues --   -0.37890  -0.37260
 Alpha virt. eigenvalues --    0.12233   0.15737   0.15740   0.16012   0.19025
 Alpha virt. eigenvalues --    0.19057   0.19186   0.19193   0.19399   0.22167
 Alpha virt. eigenvalues --    0.22174   0.22948   0.23383   0.23397   0.23906

 Mulliken charges:
               1
     1  C   -0.315421
     2  C   -0.191128
     3  C   -0.219250
     4  C   -0.190868
     5  C   -0.315497
     6  C   -0.191061
     7  C   -0.315544
     8  C   -0.191289
     9  C   -0.315322
    10  H    0.119832
    11  H    0.118273
    12  H    0.119821
    13  H    0.101777
    14  H    0.101618
    15  H    0.101654
    16  H    0.101701
    17  H    0.119856
    18  H    0.118271
    19  H    0.119826
    20  H    0.101735
    21  H    0.101691
    22  H    0.118296
    23  H    0.119893
    24  H    0.119822
    25  H    0.101739
    26  H    0.101694
    27  H    0.118275
    28  H    0.119796
    29  H    0.119813
 Sum of Mulliken charges =  -0.00000

 Dipole moment (field-independent basis, Debye):
    X=             -0.0007    Y=             -0.0008    Z=              0.0001  Tot=              0.0011
 Evaluate density.
 Using the total density.
 Monte-Carlo method of calculating molar volume:
 based on  0.001 e/bohr**3 density envelope.
 Number of points per bohr**3 =  100 CutOff= 1.00D-04
 Using the SCF density.
 There are      1925 points.  Will hold      1925 in memory.
 LenV=  1048202164 MDV=  1048576000.
 Box volume = 7140.963 fraction occupied=0.220
 Integrated density= 6.6007030991052616D+01 error=-7.9929690089473837D+00

 Normal termination of Gaussian 16 at Tue Nov 14 12:14:15 2023.
