 Gaussian 16, Revision B.01,
 Gaussian 16:  ES64L-G16RevB.01 20-Dec-2017

 --------------------------------------------------------------
 #T wB97XD//def2svpp Volume=tight Geom=AllCheckpoint Guess=Read
 --------------------------------------------------------------
 Structure from the checkpoint file:  "11.chk"
 -------
 Monomer
 -------
 Charge =  0 Multiplicity = 1

                         Standard orientation:
 ---------------------------------------------------------------------
 Center     Atomic      Atomic             Coordinates (Angstroms)
 Number     Number       Type             X           Y           Z
 ---------------------------------------------------------------------
      1          7           0       -1.663850    1.392446   -0.845863
      2          6           0       -0.454538    0.593173   -1.047930
      3          6           0       -0.013698   -0.125632    0.243884
      4          6           0        0.835069   -1.356546   -0.121465
      5          7           0        2.038450   -1.009188   -0.884829
      6          6           0        0.801195    0.827092    1.143272
      7          8           0        1.934227    1.356864    0.523227
      8          6           0       -1.258982   -0.610660    1.023474
      9          8           0       -2.256321   -1.132592    0.196102
     10          1           0       -1.937304    1.850608   -1.714470
     11          1           0       -1.499363    2.132742   -0.162674
     12          1           0        0.399652    1.188023   -1.425655
     13          1           0       -0.700637   -0.166080   -1.811456
     14          1           0        0.183543   -2.090857   -0.638050
     15          1           0        1.173598   -1.830115    0.817046
     16          1           0        1.809003   -0.770622   -1.850165
     17          1           0        2.686872   -1.794664   -0.919037
     18          1           0        1.059847    0.279184    2.078311
     19          1           0        0.168694    1.680414    1.454846
     20          1           0        2.348184    0.616654    0.026226
     21          1           0       -1.649701    0.228573    1.636388
     22          1           0       -0.966349   -1.407013    1.730051
     23          1           0       -2.575765   -0.358394   -0.308566
 ---------------------------------------------------------------------

 SCF Done:  E(RwB97XD) =  -458.376009213     A.U. after    1 cycles

 The electronic state is 1-A.
 Alpha  occ. eigenvalues --  -19.22550 -19.21771 -14.44402 -14.43684 -10.32698
 Alpha  occ. eigenvalues --  -10.32684 -10.32403 -10.31996 -10.30153  -1.09678
 Alpha  occ. eigenvalues --   -1.08874  -0.99584  -0.98424  -0.87952  -0.76283
 Alpha  occ. eigenvalues --   -0.75247  -0.73416  -0.64467  -0.61036  -0.59998
 Alpha  occ. eigenvalues --   -0.59284  -0.57475  -0.54864  -0.53998  -0.51793
 Alpha  occ. eigenvalues --   -0.51399  -0.49102  -0.47829  -0.46390  -0.44263
 Alpha  occ. eigenvalues --   -0.42325  -0.41468  -0.39969  -0.34898  -0.33018
 Alpha  occ. eigenvalues --   -0.32823  -0.32545
 Alpha virt. eigenvalues --    0.12205   0.12336   0.15077   0.17094   0.18300
 Alpha virt. eigenvalues --    0.19824   0.20179   0.21110   0.21935   0.23776
 Alpha virt. eigenvalues --    0.24226   0.24966   0.25588   0.27334   0.28703

 Mulliken charges:
               1
     1  N   -0.544958
     2  C   -0.065071
     3  C   -0.355664
     4  C   -0.054676
     5  N   -0.543835
     6  C    0.096864
     7  O   -0.508503
     8  C    0.095284
     9  O   -0.502771
    10  H    0.235196
    11  H    0.236296
    12  H    0.109960
    13  H    0.103782
    14  H    0.119016
    15  H    0.101778
    16  H    0.240821
    17  H    0.240997
    18  H    0.080410
    19  H    0.082290
    20  H    0.324147
    21  H    0.083609
    22  H    0.095499
    23  H    0.329530
 Sum of Mulliken charges =  -0.00000

 Dipole moment (field-independent basis, Debye):
    X=              0.6164    Y=             -0.2986    Z=             -2.1964  Tot=              2.3007
 Evaluate density.
 Using the total density.
 Monte-Carlo method of calculating molar volume:
 based on  0.001 e/bohr**3 density envelope.
 Number of points per bohr**3 =  100 CutOff= 1.00D-04
 Using the SCF density.
 There are      1763 points.  Will hold      1763 in memory.
 LenV=  1048256278 MDV=  1048576000.
 Box volume = 5480.024 fraction occupied=0.212
 Integrated density= 5.9497926377809392D+01 error=-1.4502073622190608D+01

 1\1\GINC-C382\SP\RwB97XD\def2SVPP\C5H14N2O2\PETERCHAO1\23-Sep-2022\0\\
 #T wB97XD//def2svpp Volume=tight Geom=AllCheckpoint Guess=Read\\Monome
 r\\0,1\N,0,-1.6638316649,1.3924657456,-0.8458588601\C,0,-0.4545288511,
 0.5931789497,-1.0479259217\C,0,-0.0136970198,-0.1256308921,0.243888353
 6\C,0,0.8350560182,-1.3565548005,-0.1214608969\N,0,2.038440856,-1.0092
 110828,-0.8848253313\C,0,0.8012065579,0.827083147,1.1432761888\O,0,1.9
 342443165,1.3568420391,0.5232309378\C,0,-1.2589869003,-0.6106451405,1.
 0234777528\O,0,-2.2563316759,-1.1325657079,0.1961062811\H,0,-1.9372811

 Normal termination of Gaussian 16 at Fri Sep 23 14:30:13 2022.
