 Gaussian 16, Revision B.01,
 Gaussian 16:  ES64L-G16RevB.01 20-Dec-2017

 ----------------------------------------------------------------------
 #T wB97XD/def2svpp opt=tight freq int(grid=ultrafine) scf=(verytight,q
 c) Volume=tight
 ----------------------------------------------------------------------
 -------
 Monomer
 -------
 Symbolic Z-matrix:
 Charge =  0 Multiplicity = 1

 SCF Done:  E(RwB97XD) =  -213.554136386     a.u. after    6 cycles
 SCF Done:  E(RwB97XD) =  -213.555993323     a.u. after    6 cycles
 SCF Done:  E(RwB97XD) =  -213.556084896     a.u. after    5 cycles
 SCF Done:  E(RwB97XD) =  -213.556097928     a.u. after    3 cycles
 SCF Done:  E(RwB97XD) =  -213.556101629     a.u. after    3 cycles
 SCF Done:  E(RwB97XD) =  -213.556102841     a.u. after    3 cycles
 SCF Done:  E(RwB97XD) =  -213.556103181     a.u. after    2 cycles
 SCF Done:  E(RwB97XD) =  -213.556103197     a.u. after    2 cycles
 SCF Done:  E(RwB97XD) =  -213.556103199     a.u. after    2 cycles
 Optimization completed.
    -- Stationary point found.

 1\1\GINC-C200\FOpt\RwB97XD\def2SVPP\C4H11N1\PETERCHAO1\29-Mar-2024\0\\
 #T wB97XD/def2svpp opt=tight freq int(grid=ultrafine) scf=(verytight,q
 c) Volume=tight\\Monomer\\0,1\C,-0.6572483957,-1.4505328816,0.08460517
 02\C,-0.5025757638,0.0109839641,-0.3368854341\C,-1.739061516,0.8297105
 604,0.035991727\C,0.766222069,0.6509113534,0.2594423046\N,2.0381407443
 ,0.0305212042,-0.0621630224\H,-1.5584266252,-1.9041791303,-0.363580285
 1\H,-0.7496328009,-1.534115494,1.1839973441\H,0.2091150976,-2.05779419
 77,-0.2304707191\H,-0.3939957733,0.0379579977,-1.4397384034\H,-1.64001

 Normal termination of Gaussian 16 at Fri Mar 29 15:36:55 2024.

 ---------------------------------------------------------------------
 #T Geom=AllCheck Guess=TCheck SCRF=Check GenChk RwB97XD/def2SVPP Freq
 ---------------------------------------------------------------------
 Structure from the checkpoint file:  "monomer.chk"
 -------
 Monomer
 -------
 Charge =  0 Multiplicity = 1

                         Standard orientation:
 ---------------------------------------------------------------------
 Center     Atomic      Atomic             Coordinates (Angstroms)
 Number     Number       Type             X           Y           Z
 ---------------------------------------------------------------------
      1          6           0        0.561635    1.463391    0.106627
      2          6           0        0.466322    0.003897   -0.338795
      3          6           0        1.738851   -0.767653    0.012815
      4          6           0       -0.770236   -0.699318    0.253974
      5          7           0       -2.069415   -0.128265   -0.049543
      6          1           0        1.439790    1.962402   -0.339042
      7          1           0        0.657630    1.532370    1.206723
      8          1           0       -0.331762    2.038465   -0.192966
      9          1           0        0.351723   -0.009163   -1.441291
     10          1           0        1.682299   -1.815672   -0.331195
     11          1           0        1.899721   -0.781750    1.106884
     12          1           0        2.629398   -0.308014   -0.450341
     13          1           0       -0.665643   -0.737626    1.355215
     14          1           0       -0.772928   -1.751451   -0.086650
     15          1           0       -2.201361   -0.027767   -1.055993
     16          1           0       -2.182392    0.794159    0.367733
 ---------------------------------------------------------------------

 SCF Done:  E(RwB97XD) =  -213.556103199     a.u. after    1 cycles

 The electronic state is 1-A.
 Alpha  occ. eigenvalues --  -14.41047 -10.30755 -10.29358 -10.28258 -10.28095
 Alpha  occ. eigenvalues --   -0.97036  -0.87985  -0.77357  -0.74248  -0.65101
 Alpha  occ. eigenvalues --   -0.58390  -0.54538  -0.53022  -0.51382  -0.47304
 Alpha  occ. eigenvalues --   -0.46226  -0.44488  -0.43227  -0.41397  -0.40290
 Alpha  occ. eigenvalues --   -0.30846
 Alpha virt. eigenvalues --    0.12957   0.15540   0.16498   0.18491   0.20410
 Alpha virt. eigenvalues --    0.21148   0.21687   0.22913   0.24473   0.25730
 Alpha virt. eigenvalues --    0.26709   0.29919   0.32062   0.33794   0.34345

 Mulliken charges:
               1
     1  C   -0.311016
     2  C   -0.206599
     3  C   -0.302567
     4  C   -0.075279
     5  N   -0.506102
     6  H    0.121017
     7  H    0.109229
     8  H    0.102542
     9  H    0.083513
    10  H    0.117741
    11  H    0.110515
    12  H    0.118602
    13  H    0.095777
    14  H    0.103551
    15  H    0.216412
    16  H    0.222665
 Sum of Mulliken charges =  -0.00000

 Dipole moment (field-independent basis, Debye):
    X=              0.8035    Y=              0.9026    Z=             -0.6170  Tot=              1.3569
  Exact polarizability:  53.266  -1.562  51.100   0.884   0.284  46.917
 Approx polarizability:  51.181  -1.231  50.915   0.924   0.611  51.816
   1 Symmetry operations used in ECPInt.
 ECPInt:  NShTT=    1378 NPrTT=    5558 LenC2=    1377 LenP2D=    4701.
 LDataN:  DoStor=T MaxTD1= 6 Len=  172
 Calling FoFJK, ICntrl=    100127 FMM=F ISym2X=0 I1Cent= 0 IOpClX= 0 NMat=1 NMatS=1 NMatT=0.
 Full mass-weighted force constant matrix:
 Low frequencies ---   -2.2184   -0.0010   -0.0009   -0.0007    9.6773   15.4674
 Low frequencies ---  120.5864  231.1858  250.9436
 Diagonal vibrational polarizability:

                      1                      2                      3
                      A                      A                      A
 Frequencies --    120.5848               231.1820               250.9427
 Red. masses --      1.8145                 1.0892                 1.0890
 Frc consts  --      0.0155                 0.0343                 0.0404
 IR Inten    --      1.7504                 0.8573                 9.2205

                      4                      5                      6
                      A                      A                      A
 Frequencies --    274.9669               324.6500               369.7765
 Red. masses --      2.1299                 1.2898                 2.0405
 Frc consts  --      0.0949                 0.0801                 0.1644
 IR Inten    --      3.0447                33.5527                 2.6828

                      7                      8                      9
                      A                      A                      A
 Frequencies --    437.0163               486.8040               791.7586
 Red. masses --      1.7384                 2.5817                 1.8519
 Frc consts  --      0.1956                 0.3605                 0.6840
 IR Inten    --      5.9800                 6.7007                98.3280

                     10                     11                     12
                      A                      A                      A
 Frequencies --    867.1433               882.0149               941.2865
 Red. masses --      1.3876                 1.4954                 1.2266
 Frc consts  --      0.6148                 0.6854                 0.6403
 IR Inten    --     37.4543               118.9125                 0.4607

                     13                     14                     15
                      A                      A                      A
 Frequencies --    963.5279               981.9091              1078.7331
 Red. masses --      1.7121                 1.4146                 1.2010
 Frc consts  --      0.9365                 0.8036                 0.8234
 IR Inten    --     17.0579                 1.9771                 1.2573

                     16                     17                     18
                      A                      A                      A
 Frequencies --   1143.1572              1177.9808              1209.4023
 Red. masses --      3.0750                 2.3121                 1.7226
 Frc consts  --      2.3676                 1.8903                 1.4845
 IR Inten    --     18.8002                 2.9533                 0.0550

                     19                     20                     21
                      A                      A                      A
 Frequencies --   1250.2668              1341.4307              1373.6549
 Red. masses --      1.6810                 1.2592                 1.3508
 Frc consts  --      1.5482                 1.3350                 1.5018
 IR Inten    --      0.2428                 5.9821                 0.7415

                     22                     23                     24
                      A                      A                      A
 Frequencies --   1402.4454              1407.0035              1422.0888
 Red. masses --      1.2221                 1.3247                 1.3885
 Frc consts  --      1.4162                 1.5451                 1.6544
 IR Inten    --      3.6589                 5.7460                 4.3376

                     25                     26                     27
                      A                      A                      A
 Frequencies --   1429.9583              1478.1126              1484.3005
 Red. masses --      1.3300                 1.0860                 1.0479
 Frc consts  --      1.6024                 1.3979                 1.3603
 IR Inten    --     10.6440                 0.1977                 1.2964

                     28                     29                     30
                      A                      A                      A
 Frequencies --   1490.7046              1498.8148              1507.9049
 Red. masses --      1.0633                 1.0601                 1.0561
 Frc consts  --      1.3921                 1.4032                 1.4148
 IR Inten    --      5.0712                 7.9459                17.5630

                     31                     32                     33
                      A                      A                      A
 Frequencies --   1674.4378              3015.0659              3020.3624
 Red. masses --      1.0994                 1.0834                 1.0388
 Frc consts  --      1.8162                 5.8028                 5.5834
 IR Inten    --     21.6899                18.6060                27.6902

                     34                     35                     36
                      A                      A                      A
 Frequencies --   3022.0751              3027.9034              3083.0780
 Red. masses --      1.0425                 1.0596                 1.1069
 Frc consts  --      5.6097                 5.7237                 6.1992
 IR Inten    --     18.5659                50.0517                30.2260

                     37                     38                     39
                      A                      A                      A
 Frequencies --   3109.2460              3112.4958              3119.8616
 Red. masses --      1.1039                 1.1028                 1.1049
 Frc consts  --      6.2879                 6.2944                 6.3363
 IR Inten    --      7.5338                52.4222                21.3796

                     40                     41                     42
                      A                      A                      A
 Frequencies --   3122.3655              3500.5262              3589.9981
 Red. masses --      1.1039                 1.0507                 1.0935
 Frc consts  --      6.3407                 7.5854                 8.3031
 IR Inten    --     28.7176                 0.0114                 1.3070

 Optimization completed.
    -- Stationary point found.

 1\1\GINC-C200\Freq\RwB97XD\def2SVPP\C4H11N1\PETERCHAO1\29-Mar-2024\0\\
 #T Geom=AllCheck Guess=TCheck SCRF=Check GenChk RwB97XD/def2SVPP Freq\
 \Monomer\\0,1\C,-0.6572483957,-1.4505328816,0.0846051702\C,-0.50257576
 38,0.0109839641,-0.3368854341\C,-1.739061516,0.8297105604,0.035991727\
 C,0.766222069,0.6509113534,0.2594423046\N,2.0381407443,0.0305212042,-0
 .0621630224\H,-1.5584266252,-1.9041791303,-0.3635802851\H,-0.749632800
 9,-1.534115494,1.1839973441\H,0.2091150976,-2.0577941977,-0.2304707191
 \H,-0.3939957733,0.0379579977,-1.4397384034\H,-1.6400160761,1.88009825

 Normal termination of Gaussian 16 at Fri Mar 29 15:37:52 2024.
