 Gaussian 16, Revision B.01,
 Gaussian 16:  ES64L-G16RevB.01 20-Dec-2017

 --------------------------------------------------------------
 #T wB97XD//def2svpp Volume=tight Geom=AllCheckpoint Guess=Read
 --------------------------------------------------------------
 Structure from the checkpoint file:  "4.chk"
 -----
 Dimer
 -----
 Charge =  0 Multiplicity = 1

                         Standard orientation:
 ---------------------------------------------------------------------
 Center     Atomic      Atomic             Coordinates (Angstroms)
 Number     Number       Type             X           Y           Z
 ---------------------------------------------------------------------
      1          6           0        1.273842   -0.258800    0.000032
      2          6           0        0.000000    0.583527   -0.000026
      3          6           0       -1.273842   -0.258800   -0.000009
      4          1           0        2.177804    0.374472    0.000020
      5          1           0        1.319819   -0.910549   -0.891092
      6          1           0        1.319789   -0.910473    0.891213
      7          1           0        0.000014    1.248728   -0.882857
      8          1           0       -0.000014    1.248805    0.882747
      9          1           0       -2.177804    0.374472   -0.000053
     10          1           0       -1.319819   -0.910471    0.891172
     11          1           0       -1.319789   -0.910552   -0.891133
 ---------------------------------------------------------------------

 SCF Done:  E(RwB97XD) =  -119.002934853     A.U. after    1 cycles

 The electronic state is 1-A.
 Alpha  occ. eigenvalues --  -10.28702 -10.27861 -10.27860  -0.87081  -0.76700
 Alpha  occ. eigenvalues --   -0.66840  -0.54311  -0.52211  -0.48209  -0.46240
 Alpha  occ. eigenvalues --   -0.41934  -0.41681  -0.40625
 Alpha virt. eigenvalues --    0.14064   0.18914   0.18933   0.18988   0.21922
 Alpha virt. eigenvalues --    0.24022   0.24321   0.24909   0.29379   0.33530
 Alpha virt. eigenvalues --    0.48764   0.51410   0.52127   0.54592   0.55490

 Mulliken charges:
               1
     1  C   -0.334906
     2  C   -0.240535
     3  C   -0.334906
     4  H    0.120670
     5  H    0.113791
     6  H    0.113791
     7  H    0.106921
     8  H    0.106921
     9  H    0.120670
    10  H    0.113791
    11  H    0.113791
 Sum of Mulliken charges =  -0.00000

 Dipole moment (field-independent basis, Debye):
    X=             -0.0000    Y=              0.0588    Z=             -0.0000  Tot=              0.0588
 Evaluate density.
 Using the total density.
 Monte-Carlo method of calculating molar volume:
 based on  0.001 e/bohr**3 density envelope.
 Number of points per bohr**3 =  100 CutOff= 1.00D-04
 Using the SCF density.
 There are      1503 points.  Will hold      1503 in memory.
 LenV=  1048474703 MDV=  1048576000.
 Box volume = 3396.704 fraction occupied=0.180
 Integrated density= 2.6313232239514619D+01 error= 3.1323223951461898D-01

 Normal termination of Gaussian 16 at Fri Feb  3 12:51:12 2023.
