 Gaussian 16, Revision B.01,
 Gaussian 16:  ES64L-G16RevB.01 20-Dec-2017

 ----------------------------------------------------------------------
 #T wB97XD/def2svpp opt=(tight,calcall) freq int(grid=ultrafine) scf=(v
 erytight,qc) Volume=tight
 ----------------------------------------------------------------------
 -------
 Monomer
 -------
 Symbolic Z-matrix:
 Charge =  0 Multiplicity = 1

 SCF Done:  E(RwB97XD) =  -354.626996295     a.u. after    7 cycles
 SCF Done:  E(RwB97XD) =  -354.626999654     a.u. after    2 cycles
 SCF Done:  E(RwB97XD) =  -354.627006595     a.u. after    2 cycles
 SCF Done:  E(RwB97XD) =  -354.627002066     a.u. after    2 cycles
 SCF Done:  E(RwB97XD) =  -354.627002509     a.u. after    2 cycles
 SCF Done:  E(RwB97XD) =  -354.627002384     a.u. after    2 cycles
 SCF Done:  E(RwB97XD) =  -354.627002065     a.u. after    2 cycles
 SCF Done:  E(RwB97XD) =  -354.627002178     a.u. after    2 cycles
 SCF Done:  E(RwB97XD) =  -354.627002362     a.u. after    2 cycles
 SCF Done:  E(RwB97XD) =  -354.627002359     a.u. after    2 cycles
 SCF Done:  E(RwB97XD) =  -354.627001312     a.u. after    2 cycles
 SCF Done:  E(RwB97XD) =  -354.626999590     a.u. after    2 cycles
 SCF Done:  E(RwB97XD) =  -354.627007635     a.u. after    2 cycles
 SCF Done:  E(RwB97XD) =  -354.626999954     a.u. after    2 cycles
 SCF Done:  E(RwB97XD) =  -354.627001869     a.u. after    2 cycles
 SCF Done:  E(RwB97XD) =  -354.627001982     a.u. after    2 cycles
 SCF Done:  E(RwB97XD) =  -354.627002018     a.u. after    2 cycles
 SCF Done:  E(RwB97XD) =  -354.627002016     a.u. after    2 cycles
 SCF Done:  E(RwB97XD) =  -354.627002018     a.u. after    2 cycles
 Optimization completed.
    -- Stationary point found.
 Normal termination of Gaussian 16 at Mon Nov 13 13:32:28 2023.

 ---------------------------------------------------------------------
 #T Geom=AllCheck Guess=TCheck SCRF=Check GenChk RwB97XD/def2SVPP Freq
 ---------------------------------------------------------------------
 Structure from the checkpoint file:  "0.chk"
 -------
 Monomer
 -------
 Charge =  0 Multiplicity = 1

                         Standard orientation:
 ---------------------------------------------------------------------
 Center     Atomic      Atomic             Coordinates (Angstroms)
 Number     Number       Type             X           Y           Z
 ---------------------------------------------------------------------
      1          6           0       -1.824922   -1.866460    0.252388
      2          6           0       -0.867171   -0.886757    0.927166
      3          6           0        0.000000   -0.000001    0.000000
      4          6           0        0.886837   -0.867044   -0.927209
      5          6           0        1.866488   -1.824883   -0.252479
      6          6           0       -0.886626    0.867088   -0.927367
      7          6           0       -1.866427    1.824898   -0.252814
      8          6           0        0.866961    0.886707    0.927410
      9          6           0        1.824861    1.866452    0.252905
     10          1           0       -2.567445   -1.350997   -0.380893
     11          1           0       -2.383968   -2.438453    1.012809
     12          1           0       -1.292764   -2.596991   -0.381027
     13          1           0       -0.194918   -1.452290    1.597629
     14          1           0       -1.447818   -0.227285    1.597405
     15          1           0        1.452425   -0.194698   -1.597533
     16          1           0        0.227424   -1.447602   -1.597581
     17          1           0        2.596967   -1.292809    0.381067
     18          1           0        2.438542   -2.383826   -1.012928
     19          1           0        1.350974   -2.567492    0.380660
     20          1           0       -1.452064    0.194774   -1.597850
     21          1           0       -0.227061    1.447676   -1.597565
     22          1           0       -2.438314    2.383872   -1.013366
     23          1           0       -1.351055    2.567481    0.380471
     24          1           0       -2.597046    1.292796    0.380547
     25          1           0        1.447458    0.227200    1.597743
     26          1           0        0.194554    1.452201    1.597753
     27          1           0        2.383731    2.438403    1.013486
     28          1           0        1.292844    2.597018   -0.380589
     29          1           0        2.567531    1.351028   -0.380236
 ---------------------------------------------------------------------

 SCF Done:  E(RwB97XD) =  -354.627002018     a.u. after    1 cycles

 The electronic state is 1-A.
 Alpha  occ. eigenvalues --  -10.29916 -10.28186 -10.28181 -10.28181 -10.28178
 Alpha  occ. eigenvalues --  -10.27796 -10.27796 -10.27796 -10.27794  -0.92576
 Alpha  occ. eigenvalues --   -0.83924  -0.83924  -0.82717  -0.76434  -0.72588
 Alpha  occ. eigenvalues --   -0.67941  -0.67941  -0.59896  -0.56380  -0.56380
 Alpha  occ. eigenvalues --   -0.54323  -0.49638  -0.48948  -0.48948  -0.48635
 Alpha  occ. eigenvalues --   -0.48371  -0.47571  -0.46002  -0.43724  -0.43724
 Alpha  occ. eigenvalues --   -0.42342  -0.42342  -0.41967  -0.40035  -0.37893
 Alpha  occ. eigenvalues --   -0.37893  -0.37268
 Alpha virt. eigenvalues --    0.12234   0.15740   0.15740   0.16012   0.19028
 Alpha virt. eigenvalues --    0.19058   0.19189   0.19189   0.19401   0.22173
 Alpha virt. eigenvalues --    0.22173   0.22950   0.23395   0.23395   0.23909

 Mulliken charges:
               1
     1  C   -0.315111
     2  C   -0.191299
     3  C   -0.219090
     4  C   -0.191298
     5  C   -0.315112
     6  C   -0.191299
     7  C   -0.315111
     8  C   -0.191298
     9  C   -0.315111
    10  H    0.119792
    11  H    0.118239
    12  H    0.119799
    13  H    0.101674
    14  H    0.101678
    15  H    0.101674
    16  H    0.101678
    17  H    0.119799
    18  H    0.118239
    19  H    0.119792
    20  H    0.101674
    21  H    0.101678
    22  H    0.118239
    23  H    0.119792
    24  H    0.119798
    25  H    0.101678
    26  H    0.101674
    27  H    0.118239
    28  H    0.119799
    29  H    0.119792
 Sum of Mulliken charges =  -0.00000

 Dipole moment (field-independent basis, Debye):
    X=             -0.0000    Y=             -0.0000    Z=             -0.0000  Tot=              0.0000
  Exact polarizability: 100.113  -0.000 100.113   0.001   0.000  87.033
 Approx polarizability: 100.264  -0.000 100.264   0.000   0.000  99.474
   1 Symmetry operations used in ECPInt.
 ECPInt:  NShTT=    4465 NPrTT=   17943 LenC2=    4444 LenP2D=   14111.
 LDataN:  DoStor=T MaxTD1= 6 Len=  172
 Calling FoFJK, ICntrl=    100127 FMM=F ISym2X=0 I1Cent= 0 IOpClX= 0 NMat=1 NMatS=1 NMatT=0.
 Full mass-weighted force constant matrix:
 Low frequencies ---   -3.4619   -3.4613    0.0003    0.0007    0.0010    8.2826
 Low frequencies ---   51.6984   96.8752   96.8756
 Diagonal vibrational polarizability:

                      1                      2                      3
                      A                      A                      A
 Frequencies --     51.6984                96.8445                96.8449
 Red. masses --      2.3352                 2.0742                 2.0742
 Frc consts  --      0.0037                 0.0115                 0.0115
 IR Inten    --      0.0001                 0.0017                 0.0017

                      4                      5                      6
                      A                      A                      A
 Frequencies --    116.8102               180.2354               224.0628
 Red. masses --      1.1825                 2.8606                 1.1556
 Frc consts  --      0.0095                 0.0548                 0.0342
 IR Inten    --      0.0000                 0.0000                 0.0235

                      7                      8                      9
                      A                      A                      A
 Frequencies --    224.0642               227.8182               274.0087
 Red. masses --      1.1556                 1.0802                 2.3247
 Frc consts  --      0.0342                 0.0330                 0.1028
 IR Inten    --      0.0235                 0.0316                 0.3151

                     10                     11                     12
                      A                      A                      A
 Frequencies --    328.6879               354.6999               354.7006
 Red. masses --      1.5520                 2.2506                 2.2506
 Frc consts  --      0.0988                 0.1668                 0.1668
 IR Inten    --      0.0000                 0.0301                 0.0301

                     13                     14                     15
                      A                      A                      A
 Frequencies --    359.7073               406.3458               416.8715
 Red. masses --      1.9982                 3.1666                 3.4984
 Frc consts  --      0.1523                 0.3081                 0.3582
 IR Inten    --      0.0008                 0.0000                 0.3190

                     16                     17                     18
                      A                      A                      A
 Frequencies --    525.4222               525.4224               693.1860
 Red. masses --      2.0772                 2.0772                 2.5786
 Frc consts  --      0.3379                 0.3379                 0.7300
 IR Inten    --      0.8763                 0.8763                 0.0000

                     19                     20                     21
                      A                      A                      A
 Frequencies --    759.4952               789.3735               789.3736
 Red. masses --      1.1262                 1.3264                 1.3264
 Frc consts  --      0.3827                 0.4869                 0.4869
 IR Inten    --      0.0000                 6.5873                 6.5873

                     22                     23                     24
                      A                      A                      A
 Frequencies --    816.2779               930.6674               930.6675
 Red. masses --      1.1250                 1.8470                 1.8470
 Frc consts  --      0.4416                 0.9425                 0.9425
 IR Inten    --      0.0020                 4.3378                 4.3378

                     25                     26                     27
                      A                      A                      A
 Frequencies --    942.6564              1048.0568              1048.0569
 Red. masses --      1.4338                 1.6002                 1.6002
 Frc consts  --      0.7507                 1.0356                 1.0356
 IR Inten    --      9.9427                 1.9375                 1.9375

                     28                     29                     30
                      A                      A                      A
 Frequencies --   1050.8854              1061.4724              1070.8399
 Red. masses --      1.5923                 1.2875                 1.9092
 Frc consts  --      1.0361                 0.8547                 1.2899
 IR Inten    --      0.0000                 0.0000                 1.9945

                     31                     32                     33
                      A                      A                      A
 Frequencies --   1070.8401              1103.6304              1125.5711
 Red. masses --      1.9092                 2.8747                 2.3226
 Frc consts  --      1.2899                 2.0629                 1.7337
 IR Inten    --      1.9945                 0.0645                 0.0000

                     34                     35                     36
                      A                      A                      A
 Frequencies --   1137.1127              1216.5232              1216.5232
 Red. masses --      1.5216                 1.9958                 1.9958
 Frc consts  --      1.1592                 1.7403                 1.7403
 IR Inten    --      0.0002                 2.9028                 2.9028

                     37                     38                     39
                      A                      A                      A
 Frequencies --   1278.8649              1296.1125              1308.7492
 Red. masses --      4.8844                 1.1635                 1.1147
 Frc consts  --      4.7066                 1.1516                 1.1249
 IR Inten    --      1.1775                 0.0000                 0.0045

                     40                     41                     42
                      A                      A                      A
 Frequencies --   1336.0036              1336.0036              1378.1822
 Red. masses --      1.1981                 1.1981                 1.2897
 Frc consts  --      1.2599                 1.2599                 1.4433
 IR Inten    --      3.0566                 3.0566                 0.2937

                     43                     44                     45
                      A                      A                      A
 Frequencies --   1403.2236              1406.9687              1406.9688
 Red. masses --      1.2934                 1.3902                 1.3902
 Frc consts  --      1.5005                 1.6214                 1.6214
 IR Inten    --      0.0000                 2.8631                 2.8630

                     46                     47                     48
                      A                      A                      A
 Frequencies --   1424.5243              1428.5619              1428.5621
 Red. masses --      1.3729                 1.4696                 1.4696
 Frc consts  --      1.6415                 1.7670                 1.7670
 IR Inten    --      0.0001                 7.8333                 7.8332

                     49                     50                     51
                      A                      A                      A
 Frequencies --   1433.9126              1476.5162              1476.5162
 Red. masses --      1.3592                 1.0581                 1.0581
 Frc consts  --      1.6465                 1.3591                 1.3591
 IR Inten    --      1.3773                 2.9855                 2.9855

                     52                     53                     54
                      A                      A                      A
 Frequencies --   1490.4923              1492.8790              1496.2689
 Red. masses --      1.0533                 1.0434                 1.0415
 Frc consts  --      1.3787                 1.3701                 1.3738
 IR Inten    --     14.1309                 0.0000                 2.9260

                     55                     56                     57
                      A                      A                      A
 Frequencies --   1496.7015              1496.9654              1496.9655
 Red. masses --      1.0595                 1.0563                 1.0563
 Frc consts  --      1.3984                 1.3947                 1.3946
 IR Inten    --      0.0000                 0.4805                 0.4806

                     58                     59                     60
                      A                      A                      A
 Frequencies --   1511.8355              1512.8520              1512.8525
 Red. masses --      1.0688                 1.0607                 1.0607
 Frc consts  --      1.4394                 1.4303                 1.4303
 IR Inten    --     20.8298                12.9048                12.9048

                     61                     62                     63
                      A                      A                      A
 Frequencies --   1515.5718              3033.5736              3034.6817
 Red. masses --      1.0819                 1.0401                 1.0396
 Frc consts  --      1.4641                 5.6394                 5.6411
 IR Inten    --      0.0001                 0.0001                41.3076

                     64                     65                     66
                      A                      A                      A
 Frequencies --   3034.6818              3035.2649              3040.0497
 Red. masses --      1.0396                 1.0424                 1.0625
 Frc consts  --      5.6411                 5.6581                 5.7856
 IR Inten    --     41.3075                 0.8255                 0.3776

                     67                     68                     69
                      A                      A                      A
 Frequencies --   3040.0497              3045.9450              3049.3551
 Red. masses --      1.0625                 1.0595                 1.0617
 Frc consts  --      5.7856                 5.7916                 5.8165
 IR Inten    --      0.3776                90.9680                 0.0000

                     70                     71                     72
                      A                      A                      A
 Frequencies --   3078.7460              3082.6389              3087.5413
 Red. masses --      1.1045                 1.1029                 1.1023
 Frc consts  --      6.1682                 6.1750                 6.1914
 IR Inten    --      0.0127                 0.0000                43.3607

                     73                     74                     75
                      A                      A                      A
 Frequencies --   3087.5413              3122.7105              3123.2870
 Red. masses --      1.1023                 1.1040                 1.1037
 Frc consts  --      6.1914                 6.3429                 6.3436
 IR Inten    --     43.3607                 0.0002                10.8778

                     76                     77                     78
                      A                      A                      A
 Frequencies --   3123.2870              3124.2776              3127.6951
 Red. masses --      1.1037                 1.1029                 1.1046
 Frc consts  --      6.3436                 6.3431                 6.3665
 IR Inten    --     10.8779                79.7648                 0.0000

                     79                     80                     81
                      A                      A                      A
 Frequencies --   3130.9259              3130.9259              3132.1270
 Red. masses --      1.1043                 1.1043                 1.1045
 Frc consts  --      6.3778                 6.3778                 6.3838
 IR Inten    --     64.6782                64.6780                 0.7089

                           ! Non-Optimized Parameters !
 Normal termination of Gaussian 16 at Mon Nov 13 13:38:06 2023.
