 Gaussian 16, Revision B.01,
 Gaussian 16:  ES64L-G16RevB.01 20-Dec-2017

 --------------------------------------------------------------
 #T wB97XD//def2svpp Volume=tight Geom=AllCheckpoint Guess=Read
 --------------------------------------------------------------
 Structure from the checkpoint file:  "monomer.chk"
 -------
 Monomer
 -------
 Charge =  0 Multiplicity = 1

                         Standard orientation:
 ---------------------------------------------------------------------
 Center     Atomic      Atomic             Coordinates (Angstroms)
 Number     Number       Type             X           Y           Z
 ---------------------------------------------------------------------
      1          8           0       -0.915957    1.751204    1.640530
      2          6           0       -0.040011    0.704792    1.277443
      3          6           0        0.053387    0.507500   -0.251055
      4          6           0        0.659532    1.782037   -0.897881
      5          8           0       -0.151389    2.911342   -0.754445
      6          6           0        0.887914   -0.731923   -0.584698
      7         35           0        2.709545   -0.724115    0.110992
      8          6           0       -1.333712    0.331278   -0.885837
      9         35           0       -2.478901   -1.000750   -0.030169
     10          1           0       -1.827941    1.426651    1.608822
     11          1           0       -0.330509   -0.242744    1.767570
     12          1           0        0.952132    0.984141    1.663859
     13          1           0        0.794949    1.617826   -1.981930
     14          1           0        1.667367    1.940739   -0.464061
     15          1           0       -0.424324    2.963847    0.178953
     16          1           0        0.988846   -0.848716   -1.673984
     17          1           0        0.417906   -1.638541   -0.176061
     18          1           0       -1.250570    0.025073   -1.938895
     19          1           0       -1.884285    1.279556   -0.849602
 ---------------------------------------------------------------------

 SCF Done:  E(RwB97XD) =  -5494.41230611     A.U. after    1 cycles

 The electronic state is 1-A.
 Alpha  occ. eigenvalues -- -483.06803-483.06004 -62.65013 -62.64218 -56.45775
 Alpha  occ. eigenvalues --  -56.45428 -56.45423 -56.44991 -56.44628 -56.44621
 Alpha  occ. eigenvalues --  -19.28302 -19.24730 -10.36441 -10.36375 -10.35881
 Alpha  occ. eigenvalues --  -10.34978 -10.34322  -8.81954  -8.81164  -6.64467
 Alpha  occ. eigenvalues --   -6.63716  -6.63205  -6.63186  -6.62399  -6.62370
 Alpha  occ. eigenvalues --   -2.74836  -2.74481  -2.74466  -2.74077  -2.73710
 Alpha  occ. eigenvalues --   -2.73687  -2.73461  -2.73461  -2.72638  -2.72637
 Alpha  occ. eigenvalues --   -1.14619  -1.11369  -0.96479  -0.91327  -0.86963
 Alpha  occ. eigenvalues --   -0.79336  -0.77014  -0.76305  -0.67189  -0.64194
 Alpha  occ. eigenvalues --   -0.59812  -0.58403  -0.56375  -0.54985  -0.52495
 Alpha  occ. eigenvalues --   -0.52076  -0.50321  -0.49004  -0.46639  -0.45563
 Alpha  occ. eigenvalues --   -0.44938  -0.42017  -0.39189  -0.38010  -0.37277
 Alpha  occ. eigenvalues --   -0.36619  -0.36307  -0.34920
 Alpha virt. eigenvalues --    0.06248   0.07129   0.11759   0.13119   0.15993
 Alpha virt. eigenvalues --    0.16587   0.18804   0.19613   0.20468   0.20858
 Alpha virt. eigenvalues --    0.22388   0.23870   0.25323   0.27165   0.28289

 Mulliken charges:
               1
     1  O   -0.501603
     2  C    0.048725
     3  C   -0.312138
     4  C    0.094397
     5  O   -0.500293
     6  C   -0.197580
     7  Br  -0.110050
     8  C   -0.219213
     9  Br  -0.124700
    10  H    0.336588
    11  H    0.125926
    12  H    0.134173
    13  H    0.101829
    14  H    0.116210
    15  H    0.332762
    16  H    0.160930
    17  H    0.173911
    18  H    0.163271
    19  H    0.176856
 Sum of Mulliken charges =  -0.00000

 Dipole moment (field-independent basis, Debye):
    X=             -0.8945    Y=             -1.1982    Z=             -0.1346  Tot=              1.5014
 Evaluate density.
 Using the total density.
 Monte-Carlo method of calculating molar volume:
 based on  0.001 e/bohr**3 density envelope.
 Number of points per bohr**3 =  100 CutOff= 1.00D-04
 Using the SCF density.
 There are      2342 points.  Will hold      2342 in memory.
 LenV=  1048074179 MDV=  1048576000.
 Box volume =12862.131 fraction occupied=0.106
 Integrated density= 1.1243612861222333D+02 error=-1.3563871387776672D+01

 Normal termination of Gaussian 16 at Tue Apr  2 14:03:00 2024.
