 Gaussian 16, Revision B.01,
 Gaussian 16:  ES64L-G16RevB.01 20-Dec-2017

 --------------------------------------------------------------
 #T wB97XD//def2svpp Volume=tight Geom=AllCheckpoint Guess=Read
 --------------------------------------------------------------
 Structure from the checkpoint file:  "monomer.chk"
 -------
 Monomer
 -------
 Charge =  0 Multiplicity = 1

                         Standard orientation:
 ---------------------------------------------------------------------
 Center     Atomic      Atomic             Coordinates (Angstroms)
 Number     Number       Type             X           Y           Z
 ---------------------------------------------------------------------
      1          6           0       -1.788012   -0.564637    0.024178
      2          6           0       -0.438823    0.027861   -0.348507
      3          8           0       -0.323304    1.385719    0.053676
      4          6           0        0.747016   -0.749387    0.220358
      5          8           0        1.949634   -0.118146   -0.103708
      6          1           0       -2.603825    0.044264   -0.398628
      7          1           0       -1.913505   -0.598459    1.123018
      8          1           0       -1.887701   -1.595391   -0.356793
      9          1           0       -0.331404    0.056944   -1.445383
     10          1           0       -0.563477    1.447439    0.990103
     11          1           0        0.775091   -1.772861   -0.190821
     12          1           0        0.614192   -0.840079    1.324339
     13          1           0        1.778899    0.834536   -0.021745
 ---------------------------------------------------------------------

 SCF Done:  E(RwB97XD) =  -269.260648146     A.U. after    1 cycles

 The electronic state is 1-A.
 Alpha  occ. eigenvalues --  -19.26492 -19.23821 -10.34817 -10.33368 -10.29674
 Alpha  occ. eigenvalues --   -1.13490  -1.09821  -0.86515  -0.77063  -0.70874
 Alpha  occ. eigenvalues --   -0.61059  -0.58061  -0.55143  -0.53111  -0.50809
 Alpha  occ. eigenvalues --   -0.48840  -0.46167  -0.42476  -0.41049  -0.37794
 Alpha  occ. eigenvalues --   -0.34346
 Alpha virt. eigenvalues --    0.12068   0.15680   0.16742   0.18879   0.19913
 Alpha virt. eigenvalues --    0.21454   0.22412   0.24090   0.28777   0.30504
 Alpha virt. eigenvalues --    0.30596   0.33114   0.53226   0.54193   0.56218

 Mulliken charges:
               1
     1  C   -0.324503
     2  C   -0.020258
     3  O   -0.500290
     4  C    0.046639
     5  O   -0.490021
     6  H    0.140600
     7  H    0.107166
     8  H    0.128852
     9  H    0.108153
    10  H    0.314843
    11  H    0.104274
    12  H    0.065275
    13  H    0.319269
 Sum of Mulliken charges =  -0.00000

 Dipole moment (field-independent basis, Debye):
    X=             -2.2213    Y=             -0.2844    Z=              1.3110  Tot=              2.5950
 Evaluate density.
 Using the total density.
 Monte-Carlo method of calculating molar volume:
 based on  0.001 e/bohr**3 density envelope.
 Number of points per bohr**3 =  100 CutOff= 1.00D-04
 Using the SCF density.
 There are      1595 points.  Will hold      1595 in memory.
 LenV=  1048416548 MDV=  1048576000.
 Box volume = 4058.281 fraction occupied=0.159
 Integrated density= 3.4380659164076221D+01 error=-7.6193408359237793D+00

 Normal termination of Gaussian 16 at Tue Apr  2 13:45:18 2024.
