 Gaussian 16, Revision B.01,
 Gaussian 16:  ES64L-G16RevB.01 20-Dec-2017

 --------------------------------------------------------------
 #T wB97XD/def2svpp freq int(grid=ultrafine) scf=(verytight,qc)
 --------------------------------------------------------------
 -----
 dimer
 -----
 Symbolic Z-matrix:
 Charge =  0 Multiplicity = 1

                         Standard orientation:
 ---------------------------------------------------------------------
 Center     Atomic      Atomic             Coordinates (Angstroms)
 Number     Number       Type             X           Y           Z
 ---------------------------------------------------------------------
      1         35           0        1.956493    0.192211    1.835772
      2          6           0        2.544117   -0.002633    0.000485
      3         35           0        4.356197   -0.691908   -0.025703
      4         35           0        1.373850   -1.229184   -0.933310
      5         35           0        2.506282    1.727064   -0.877350
      6         35           0       -4.353623    0.605489    0.350637
      7          6           0       -2.544501    0.002082    0.001898
      8         35           0       -1.958150   -1.144304    1.448824
      9         35           0       -2.512591   -0.992461   -1.663576
     10         35           0       -1.368392    1.533188   -0.135702
 ---------------------------------------------------------------------

 SCF Done:  E(RwB97XD) =  -20667.2721836     a.u. after    8 cycles

 The electronic state is 1-A.
 Alpha  occ. eigenvalues -- -483.09005-483.08998-483.08891-483.08890-483.08888
 Alpha  occ. eigenvalues -- -483.08888-483.08864-483.08859 -62.67228 -62.67221
 Alpha  occ. eigenvalues --  -62.67119 -62.67118 -62.67115 -62.67113 -62.67080
 Alpha  occ. eigenvalues --  -62.67075 -56.48044 -56.48037 -56.47935 -56.47935
 Alpha  occ. eigenvalues --  -56.47932 -56.47930 -56.47900 -56.47895 -56.47610
 Alpha  occ. eigenvalues --  -56.47607 -56.47603 -56.47600 -56.47497 -56.47496
 Alpha  occ. eigenvalues --  -56.47496 -56.47496 -56.47494 -56.47494 -56.47492
 Alpha  occ. eigenvalues --  -56.47491 -56.47460 -56.47459 -56.47455 -56.47454
 Alpha  occ. eigenvalues --  -10.50500 -10.50495  -8.84190  -8.84183  -8.84085
 Alpha  occ. eigenvalues --   -8.84084  -8.84077  -8.84075  -8.84039  -8.84034
 Alpha  occ. eigenvalues --   -6.66896  -6.66889  -6.66798  -6.66797  -6.66790
 Alpha  occ. eigenvalues --   -6.66788  -6.66755  -6.66750  -6.65330  -6.65323
 Alpha  occ. eigenvalues --   -6.65320  -6.65313  -6.65218  -6.65217  -6.65216
 Alpha  occ. eigenvalues --   -6.65215  -6.65211  -6.65209  -6.65207  -6.65205
 Alpha  occ. eigenvalues --   -6.65171  -6.65167  -6.65166  -6.65162  -2.77228
 Alpha  occ. eigenvalues --   -2.77221  -2.77128  -2.77128  -2.77121  -2.77119
 Alpha  occ. eigenvalues --   -2.77086  -2.77080  -2.76792  -2.76785  -2.76784
 Alpha  occ. eigenvalues --   -2.76777  -2.76686  -2.76685  -2.76685  -2.76684
 Alpha  occ. eigenvalues --   -2.76679  -2.76677  -2.76676  -2.76674  -2.76642
 Alpha  occ. eigenvalues --   -2.76639  -2.76637  -2.76634  -2.75535  -2.75535
 Alpha  occ. eigenvalues --   -2.75528  -2.75528  -2.75425  -2.75425  -2.75424
 Alpha  occ. eigenvalues --   -2.75424  -2.75417  -2.75417  -2.75415  -2.75415
 Alpha  occ. eigenvalues --   -2.75376  -2.75375  -2.75370  -2.75370  -1.01353
 Alpha  occ. eigenvalues --   -1.01227  -0.89576  -0.89551  -0.89537  -0.89429
 Alpha  occ. eigenvalues --   -0.89406  -0.89352  -0.69981  -0.69705  -0.55148
 Alpha  occ. eigenvalues --   -0.55099  -0.54913  -0.54895  -0.54698  -0.54653
 Alpha  occ. eigenvalues --   -0.43191  -0.42782  -0.42674  -0.42057  -0.41194
 Alpha  occ. eigenvalues --   -0.39834  -0.39802  -0.39771  -0.39745  -0.38162
 Alpha  occ. eigenvalues --   -0.36943  -0.36894  -0.36653  -0.36646  -0.36500
 Alpha  occ. eigenvalues --   -0.36477
 Alpha virt. eigenvalues --   -0.01877  -0.01846   0.04092   0.04220   0.04247
 Alpha virt. eigenvalues --    0.04284   0.04389   0.04627   0.24774   0.31214
 Alpha virt. eigenvalues --    0.36848   0.36921   0.38179   0.40201   0.40396

 Mulliken charges:
               1
     1  Br   0.077414
     2  C   -0.302343
     3  Br   0.074334
     4  Br   0.080547
     5  Br   0.070124
     6  Br   0.074378
     7  C   -0.302233
     8  Br   0.077287
     9  Br   0.070089
    10  Br   0.080402
 Sum of Mulliken charges =   0.00000

 Dipole moment (field-independent basis, Debye):
    X=              0.0011    Y=             -0.0109    Z=              0.0362  Tot=              0.0378
  Exact polarizability: 167.576  -1.853 135.858  -0.542  -0.158 136.407
 Approx polarizability: 186.182  -0.364 180.759  -0.116   0.020 180.680
   1 Symmetry operations used in ECPInt.
 ECPInt:  NShTT=    5886 NPrTT=   35326 LenC2=    4741 LenP2D=   16343.
 LDataN:  DoStor=T MaxTD1= 6 Len=  172
 Calling FoFJK, ICntrl=    100127 FMM=F ISym2X=0 I1Cent= 0 IOpClX= 0 NMat=1 NMatS=1 NMatT=0.
 Full mass-weighted force constant matrix:
 Low frequencies ---   -3.9962   -2.6295   -0.0155   -0.0117   -0.0098    3.6465
 Low frequencies ---   14.6498   20.4660   20.7936
 Diagonal vibrational polarizability:

                      1                      2                      3
                      A                      A                      A
 Frequencies --     14.4734                20.4403                20.7548
 Red. masses --     78.8135                77.9919                77.8854
 Frc consts  --      0.0097                 0.0192                 0.0198
 IR Inten    --      0.0003                 0.0224                 0.0020

                      4                      5                      6
                      A                      A                      A
 Frequencies --     27.4149                34.4742                36.3596
 Red. masses --     75.1376                69.3726                70.8840
 Frc consts  --      0.0333                 0.0486                 0.0552
 IR Inten    --      0.0001                 0.0015                 0.0001

                      7                      8                      9
                      A                      A                      A
 Frequencies --    130.4545               131.4307               132.2126
 Red. masses --     78.9164                78.9066                78.8991
 Frc consts  --      0.7913                 0.8031                 0.8126
 IR Inten    --      0.0002                 0.0360                 0.0052

                     10                     11                     12
                      A                      A                      A
 Frequencies --    133.8534               190.7011               191.1967
 Red. masses --     78.8731                69.3647                69.2976
 Frc consts  --      0.8326                 1.4863                 1.4926
 IR Inten    --      0.0008                 0.1888                 0.0678

                     13                     14                     15
                      A                      A                      A
 Frequencies --    191.2600               191.8666               192.0747
 Red. masses --     69.3755                69.3034                69.0610
 Frc consts  --      1.4952                 1.5032                 1.5011
 IR Inten    --      0.0178                 0.0253                 0.0439

                     16                     17                     18
                      A                      A                      A
 Frequencies --    192.5337               282.9085               283.1202
 Red. masses --     69.5631                78.9093                78.9124
 Frc consts  --      1.5193                 3.7211                 3.7268
 IR Inten    --      0.0113                 0.0011                 0.0017

                     19                     20                     21
                      A                      A                      A
 Frequencies --    697.9072               701.0452               701.8404
 Red. masses --     12.6655                12.6601                12.6628
 Frc consts  --      3.6347                 3.6659                 3.6750
 IR Inten    --     20.0298               108.0450               106.2935

                     22                     23                     24
                      A                      A                      A
 Frequencies --    706.0700               708.6759               709.7411
 Red. masses --     12.6670                12.6649                12.6630
 Frc consts  --      3.7207                 3.7476                 3.7583
 IR Inten    --     26.4770               115.2851               140.2691

 Normal termination of Gaussian 16 at Wed Sep 28 20:59:51 2022.
