 Gaussian 16, Revision B.01,
 Gaussian 16:  ES64L-G16RevB.01 20-Dec-2017

 --------------------------------------------------------------
 #T wB97XD//def2svpp Volume=tight Geom=AllCheckpoint Guess=Read
 --------------------------------------------------------------
 Structure from the checkpoint file:  "monomer.chk"
 -------
 Monomer
 -------
 Charge =  0 Multiplicity = 1

                         Standard orientation:
 ---------------------------------------------------------------------
 Center     Atomic      Atomic             Coordinates (Angstroms)
 Number     Number       Type             X           Y           Z
 ---------------------------------------------------------------------
      1          6           0       -0.448243    1.753139   -0.231025
      2          6           0       -0.283530    0.325621    0.245562
      3          6           0       -0.511797    0.137841    1.732891
      4         17           0       -1.384429   -0.755029   -0.682660
      5          7           0        1.136847   -0.180518   -0.095408
      6          8           0        1.791318    0.479696   -0.864967
      7          8           0        1.487490   -1.208326    0.428894
      8          1           0       -0.273688    1.833149   -1.312556
      9          1           0        0.265316    2.410197    0.292657
     10          1           0       -1.473543    2.084497   -0.002739
     11          1           0       -0.377383   -0.915092    2.016620
     12          1           0       -1.535495    0.457168    1.983080
     13          1           0        0.203114    0.758641    2.300036
 ---------------------------------------------------------------------

 SCF Done:  E(RwB97XD) =  -782.738354685     A.U. after    1 cycles

 The electronic state is 1-A.
 Alpha  occ. eigenvalues -- -101.68963 -19.30132 -19.29941 -14.69192 -10.42973
 Alpha  occ. eigenvalues --  -10.32113 -10.31888  -9.59779  -7.35190  -7.34179
 Alpha  occ. eigenvalues --   -7.34137  -1.35003  -1.17293  -1.00939  -0.89264
 Alpha  occ. eigenvalues --   -0.82027  -0.80813  -0.66808  -0.65330  -0.63243
 Alpha  occ. eigenvalues --   -0.61353  -0.56495  -0.54876  -0.51938  -0.51117
 Alpha  occ. eigenvalues --   -0.47770  -0.47483  -0.42550  -0.41062  -0.39960
 Alpha  occ. eigenvalues --   -0.39326  -0.38828
 Alpha virt. eigenvalues --   -0.00486   0.09786   0.13018   0.14903   0.18307
 Alpha virt. eigenvalues --    0.19535   0.21457   0.22096   0.22362   0.25893
 Alpha virt. eigenvalues --    0.27101   0.36943   0.43657   0.45134   0.49602

 Mulliken charges:
               1
     1  C   -0.219872
     2  C   -0.164934
     3  C   -0.242063
     4  Cl  -0.070990
     5  N    0.256233
     6  O   -0.230852
     7  O   -0.228508
     8  H    0.159766
     9  H    0.140187
    10  H    0.143396
    11  H    0.170370
    12  H    0.146879
    13  H    0.140389
 Sum of Mulliken charges =  -0.00000

 Dipole moment (field-independent basis, Debye):
    X=             -2.2341    Y=              2.2216    Z=              1.7268  Tot=              3.5928
 Evaluate density.
 Using the total density.
 Monte-Carlo method of calculating molar volume:
 based on  0.001 e/bohr**3 density envelope.
 Number of points per bohr**3 =  100 CutOff= 1.00D-04
 Using the SCF density.
 There are      1924 points.  Will hold      1924 in memory.
 LenV=  1048321564 MDV=  1048576000.
 Box volume = 7123.620 fraction occupied=0.120
 Integrated density= 3.6261198224961817D+01 error=-2.7738801775038183D+01

 Normal termination of Gaussian 16 at Tue Apr  2 15:13:11 2024.
