 Gaussian 16, Revision B.01,
 Gaussian 16:  ES64L-G16RevB.01 20-Dec-2017

 ----------------------------------------------------------------------
 #T wB97XD/def2svpp opt=tight freq int(grid=ultrafine) scf=(verytight,q
 c) Volume=tight
 ----------------------------------------------------------------------
 -----
 Dimer
 -----
 Symbolic Z-matrix:
 Charge =  0 Multiplicity = 1

 SCF Done:  E(RwB97XD) =  -537.704747466     a.u. after    7 cycles
 SCF Done:  E(RwB97XD) =  -537.708689249     a.u. after    7 cycles
 SCF Done:  E(RwB97XD) =  -537.709270039     a.u. after    5 cycles
 SCF Done:  E(RwB97XD) =  -537.709914476     a.u. after    7 cycles
 SCF Done:  E(RwB97XD) =  -537.710521171     a.u. after    7 cycles
 SCF Done:  E(RwB97XD) =  -537.710873812     a.u. after    5 cycles
 SCF Done:  E(RwB97XD) =  -537.710934770     a.u. after    4 cycles
 SCF Done:  E(RwB97XD) =  -537.710994697     a.u. after    4 cycles
 SCF Done:  E(RwB97XD) =  -537.711075039     a.u. after    5 cycles
 SCF Done:  E(RwB97XD) =  -537.711106396     a.u. after    5 cycles
 SCF Done:  E(RwB97XD) =  -537.711134892     a.u. after    2 cycles
 SCF Done:  E(RwB97XD) =  -537.711134898     a.u. after    2 cycles
 SCF Done:  E(RwB97XD) =  -537.711134901     a.u. after    2 cycles
 SCF Done:  E(RwB97XD) =  -537.711134902     a.u. after    2 cycles
 SCF Done:  E(RwB97XD) =  -537.711134902     a.u. after    2 cycles
 SCF Done:  E(RwB97XD) =  -537.711134903     a.u. after    2 cycles
 SCF Done:  E(RwB97XD) =  -537.711134903     a.u. after    2 cycles
 SCF Done:  E(RwB97XD) =  -537.711134904     a.u. after    2 cycles
 SCF Done:  E(RwB97XD) =  -537.711134903     a.u. after    2 cycles
 Optimization completed.
    -- Stationary point found.

 1\1\GINC-C336\FOpt\RwB97XD\def2SVPP\C8H24N4\PETERCHAO1\03-Feb-2023\0\\
 #T wB97XD/def2svpp opt=tight freq int(grid=ultrafine) scf=(verytight,q
 c) Volume=tight\\Dimer\\0,1\C,3.7266380608,0.6767170585,0.5424207395\C
 ,2.5564260413,-0.1509416506,0.0052042945\C,3.0778094583,-1.2931572768,
 -0.8794582325\N,1.7749345398,-0.6343402206,1.1437260381\C,1.6088751191
 ,0.7371307638,-0.8349304104\N,0.9193215598,1.7768836065,-0.0830155373\
 H,4.3321334868,1.0922658029,-0.2821796708\H,4.3926405383,0.0557682399,
 1.1692360169\H,3.3592413986,1.5089477433,1.1665455426\H,3.6369042499,-

 Normal termination of Gaussian 16 at Fri Feb  3 11:46:41 2023.

 ---------------------------------------------------------------------
 #T Geom=AllCheck Guess=TCheck SCRF=Check GenChk RwB97XD/def2SVPP Freq
 ---------------------------------------------------------------------
 Structure from the checkpoint file:  "39.chk"
 -----
 Dimer
 -----
 Charge =  0 Multiplicity = 1

                         Standard orientation:
 ---------------------------------------------------------------------
 Center     Atomic      Atomic             Coordinates (Angstroms)
 Number     Number       Type             X           Y           Z
 ---------------------------------------------------------------------
      1          6           0        3.721996   -0.723410   -0.509103
      2          6           0        2.556982    0.134506   -0.009362
      3          6           0        3.085429    1.310805    0.825018
      4          7           0        1.779184    0.572859   -1.168462
      5          6           0        1.603262   -0.709876    0.868013
      6          7           0        0.907259   -1.776925    0.161661
      7          1           0        4.324387   -1.106528    0.333285
      8          1           0        4.392330   -0.134751   -1.161917
      9          1           0        3.349443   -1.579663   -1.096601
     10          1           0        3.641643    0.967736    1.716739
     11          1           0        2.247355    1.945217    1.164818
     12          1           0        3.763866    1.940474    0.221241
     13          1           0        1.042607    1.235646   -0.887475
     14          1           0        2.376047    1.033610   -1.855044
     15          1           0        0.845981   -0.030421    1.300414
     16          1           0        2.158254   -1.135571    1.722337
     17          1           0        1.465239   -2.629031    0.131471
     18          1           0        0.780056   -1.464601   -0.806212
     19          6           0       -3.085323   -1.310846   -0.825044
     20          6           0       -2.556969   -0.134516    0.009353
     21          6           0       -3.722047    0.723347    0.509036
     22          7           0       -1.779205   -0.572823    1.168488
     23          6           0       -1.603256    0.709909   -0.867991
     24          7           0       -0.907308    1.776974   -0.161602
     25          1           0       -3.641504   -0.967811   -1.716799
     26          1           0       -3.763765   -1.940539   -0.221297
     27          1           0       -2.247202   -1.945225   -1.164792
     28          1           0       -4.324430    1.106415   -0.333380
     29          1           0       -3.349562    1.579632    1.096530
     30          1           0       -4.392373    0.134665    1.161839
     31          1           0       -2.376076   -1.033586    1.855053
     32          1           0       -1.042579   -1.235577    0.887547
     33          1           0       -2.158248    1.135595   -1.722319
     34          1           0       -0.845940    0.030491   -1.300384
     35          1           0       -0.780174    1.464655    0.806283
     36          1           0       -1.465313    2.629066   -0.131450
 ---------------------------------------------------------------------

 SCF Done:  E(RwB97XD) =  -537.711134903     a.u. after    1 cycles

 The electronic state is 1-A.
 Alpha  occ. eigenvalues --  -14.40906 -14.40904 -14.39540 -14.39539 -10.31812
 Alpha  occ. eigenvalues --  -10.31811 -10.29962 -10.29961 -10.27639 -10.27639
 Alpha  occ. eigenvalues --  -10.27265 -10.27265  -0.99087  -0.98436  -0.94491
 Alpha  occ. eigenvalues --   -0.93877  -0.83532  -0.83431  -0.77174  -0.77162
 Alpha  occ. eigenvalues --   -0.73908  -0.73796  -0.63611  -0.63301  -0.59362
 Alpha  occ. eigenvalues --   -0.57322  -0.56980  -0.55227  -0.53360  -0.52821
 Alpha  occ. eigenvalues --   -0.52647  -0.52082  -0.50449  -0.50418  -0.46731
 Alpha  occ. eigenvalues --   -0.46655  -0.46138  -0.45884  -0.44838  -0.44233
 Alpha  occ. eigenvalues --   -0.43642  -0.43439  -0.41943  -0.41772  -0.41009
 Alpha  occ. eigenvalues --   -0.39985  -0.32302  -0.31361  -0.30038  -0.29894
 Alpha virt. eigenvalues --    0.12208   0.13755   0.15224   0.17301   0.17693
 Alpha virt. eigenvalues --    0.17829   0.18864   0.19062   0.19888   0.20693
 Alpha virt. eigenvalues --    0.21406   0.21611   0.22268   0.22846   0.24816

 Mulliken charges:
               1
     1  C   -0.269174
     2  C   -0.153015
     3  C   -0.254354
     4  N   -0.532576
     5  C   -0.049880
     6  N   -0.530079
     7  H    0.107938
     8  H    0.108723
     9  H    0.103465
    10  H    0.103955
    11  H    0.114329
    12  H    0.104210
    13  H    0.260080
    14  H    0.211201
    15  H    0.099182
    16  H    0.093956
    17  H    0.223123
    18  H    0.258924
    19  C   -0.254353
    20  C   -0.153016
    21  C   -0.269173
    22  N   -0.532579
    23  C   -0.049883
    24  N   -0.530077
    25  H    0.103955
    26  H    0.104210
    27  H    0.114326
    28  H    0.107937
    29  H    0.103464
    30  H    0.108722
    31  H    0.211201
    32  H    0.260080
    33  H    0.093955
    34  H    0.099182
    35  H    0.258920
    36  H    0.223121
 Sum of Mulliken charges =  -0.00000

 Dipole moment (field-independent basis, Debye):
    X=              0.0001    Y=             -0.0001    Z=             -0.0000  Tot=              0.0001
  Exact polarizability: 134.810   0.320 111.397   0.062   0.324 105.553
 Approx polarizability: 123.758  -1.687 119.251   0.638  -0.983 120.046
   1 Symmetry operations used in ECPInt.
 ECPInt:  NShTT=    7260 NPrTT=   29148 LenC2=    7065 LenP2D=   20790.
 LDataN:  DoStor=T MaxTD1= 6 Len=  172
 Calling FoFJK, ICntrl=    100127 FMM=F ISym2X=0 I1Cent= 0 IOpClX= 0 NMat=1 NMatS=1 NMatT=0.
 Full mass-weighted force constant matrix:
 Low frequencies ---   -7.9196   -2.9964   -0.0007   -0.0003   -0.0002    5.9574
 Low frequencies ---   46.9784   68.4283   83.0920
 Diagonal vibrational polarizability:

                      1                      2                      3
                      A                      A                      A
 Frequencies --     46.9784                68.4283                83.0872
 Red. masses --      3.0603                 3.2860                 3.6660
 Frc consts  --      0.0040                 0.0091                 0.0149
 IR Inten    --      1.0649                 0.9103                 0.0000

                      4                      5                      6
                      A                      A                      A
 Frequencies --     88.5017               112.4428               131.2996
 Red. masses --      4.0348                 2.9762                 3.8635
 Frc consts  --      0.0186                 0.0222                 0.0392
 IR Inten    --      0.0000                 4.6426                 0.0000

                      7                      8                      9
                      A                      A                      A
 Frequencies --    148.9891               199.0212               248.3851
 Red. masses --      2.4569                 2.0404                 1.0644
 Frc consts  --      0.0321                 0.0476                 0.0387
 IR Inten    --      0.0000                14.3696                 0.0000

                     10                     11                     12
                      A                      A                      A
 Frequencies --    249.6197               265.0481               277.2392
 Red. masses --      1.1305                 2.2652                 1.5354
 Frc consts  --      0.0415                 0.0938                 0.0695
 IR Inten    --      5.9289                 0.0000                 2.7381

                     13                     14                     15
                      A                      A                      A
 Frequencies --    285.4338               291.4554               340.6446
 Red. masses --      1.1897                 1.6110                 1.3094
 Frc consts  --      0.0571                 0.0806                 0.0895
 IR Inten    --      0.0000                 4.7977                 0.0113

                     16                     17                     18
                      A                      A                      A
 Frequencies --    341.5884               353.4920               361.6153
 Red. masses --      1.4576                 1.8009                 1.7966
 Frc consts  --      0.1002                 0.1326                 0.1384
 IR Inten    --     80.1117                30.1897                 0.0002

                     19                     20                     21
                      A                      A                      A
 Frequencies --    383.6844               385.9566               423.9175
 Red. masses --      2.0408                 1.5165                 2.1361
 Frc consts  --      0.1770                 0.1331                 0.2262
 IR Inten    --      0.0006                71.2191                 0.0000

                     22                     23                     24
                      A                      A                      A
 Frequencies --    425.6336               455.6198               460.1507
 Red. masses --      1.8996                 1.9941                 1.5862
 Frc consts  --      0.2028                 0.2439                 0.1979
 IR Inten    --     12.5923                12.6520                 0.0000

                     25                     26                     27
                      A                      A                      A
 Frequencies --    508.7682               524.5470               562.0779
 Red. masses --      1.5119                 1.4902                 2.6669
 Frc consts  --      0.2306                 0.2416                 0.4964
 IR Inten    --    101.3938                 0.0000                 0.0000

                     28                     29                     30
                      A                      A                      A
 Frequencies --    563.6172               767.9439               770.7565
 Red. masses --      2.7424                 3.1553                 3.3172
 Frc consts  --      0.5133                 1.0964                 1.1611
 IR Inten    --     15.3529                21.5839                 0.0000

                     31                     32                     33
                      A                      A                      A
 Frequencies --    889.4536               889.8297               904.9537
 Red. masses --      1.4496                 1.5135                 1.7981
 Frc consts  --      0.6757                 0.7060                 0.8676
 IR Inten    --      6.6701                 0.0001                54.3673

                     34                     35                     36
                      A                      A                      A
 Frequencies --    919.8724               943.6606               944.7617
 Red. masses --      1.7606                 1.4407                 1.4474
 Frc consts  --      0.8777                 0.7559                 0.7612
 IR Inten    --      0.0000                 0.0000                 5.1692

                     37                     38                     39
                      A                      A                      A
 Frequencies --    972.9060               974.0557               980.6972
 Red. masses --      1.2358                 1.2799                 1.3821
 Frc consts  --      0.6892                 0.7155                 0.7832
 IR Inten    --      0.0001                30.4105                 0.0001

                     40                     41                     42
                      A                      A                      A
 Frequencies --    995.6335              1000.2813              1008.2198
 Red. masses --      1.4884                 1.7248                 1.5462
 Frc consts  --      0.8693                 1.0168                 0.9260
 IR Inten    --    114.8428                 0.0001               552.5083

                     43                     44                     45
                      A                      A                      A
 Frequencies --   1033.9562              1035.8914              1120.7346
 Red. masses --      1.3518                 1.3460                 1.7537
 Frc consts  --      0.8515                 0.8510                 1.2978
 IR Inten    --      0.0000                10.9587                15.0175

                     46                     47                     48
                      A                      A                      A
 Frequencies --   1122.3811              1139.9081              1151.2192
 Red. masses --      1.8315                 1.3435                 1.4903
 Frc consts  --      1.3594                 1.0285                 1.1637
 IR Inten    --      0.0000                 0.0000                18.4077

                     49                     50                     51
                      A                      A                      A
 Frequencies --   1178.1080              1186.1337              1236.4251
 Red. masses --      1.8882                 1.9672                 2.4608
 Frc consts  --      1.5440                 1.6307                 2.2165
 IR Inten    --      9.1704                 0.0000                 0.0000

                     52                     53                     54
                      A                      A                      A
 Frequencies --   1238.6598              1309.0262              1311.7278
 Red. masses --      2.3670                 2.6591                 2.6690
 Frc consts  --      2.1397                 2.6846                 2.7057
 IR Inten    --     82.6776                 0.0000                25.6622

                     55                     56                     57
                      A                      A                      A
 Frequencies --   1361.7953              1369.6218              1395.2452
 Red. masses --      1.4434                 1.4708                 1.1833
 Frc consts  --      1.5771                 1.6256                 1.3573
 IR Inten    --      0.0000                 1.8716                 5.5437

                     58                     59                     60
                      A                      A                      A
 Frequencies --   1395.2516              1407.2239              1409.0081
 Red. masses --      1.1824                 1.4027                 1.3902
 Frc consts  --      1.3562                 1.6366                 1.6261
 IR Inten    --      0.5176                 0.0000                13.2050

                     61                     62                     63
                      A                      A                      A
 Frequencies --   1416.9755              1417.6706              1427.6442
 Red. masses --      1.3932                 1.3806                 1.3735
 Frc consts  --      1.6481                 1.6348                 1.6493
 IR Inten    --     25.5302                 0.0000                26.1700

                     64                     65                     66
                      A                      A                      A
 Frequencies --   1433.1908              1477.1673              1477.6330
 Red. masses --      1.3733                 1.0531                 1.0523
 Frc consts  --      1.6620                 1.3538                 1.3537
 IR Inten    --      0.0000                 0.9309                 0.0000

                     67                     68                     69
                      A                      A                      A
 Frequencies --   1481.4046              1482.3968              1495.7339
 Red. masses --      1.0597                 1.0642                 1.0843
 Frc consts  --      1.3703                 1.3779                 1.4293
 IR Inten    --      2.8250                 0.0000                 0.0000

                     70                     71                     72
                      A                      A                      A
 Frequencies --   1496.8214              1499.1463              1499.1609
 Red. masses --      1.0786                 1.0904                 1.0935
 Frc consts  --      1.4238                 1.4439                 1.4480
 IR Inten    --      6.2044                 6.6075                 0.0007

                     73                     74                     75
                      A                      A                      A
 Frequencies --   1506.5237              1508.5450              1663.1313
 Red. masses --      1.0838                 1.0885                 1.0920
 Frc consts  --      1.4493                 1.4595                 1.7795
 IR Inten    --      0.0000                31.2012                 0.0023

                     76                     77                     78
                      A                      A                      A
 Frequencies --   1663.7855              1694.3766              1698.6048
 Red. masses --      1.0885                 1.0942                 1.0919
 Frc consts  --      1.7753                 1.8508                 1.8562
 IR Inten    --     65.0480                61.9642                 0.0000

                     79                     80                     81
                      A                      A                      A
 Frequencies --   3017.5450              3017.5712              3026.7931
 Red. masses --      1.0370                 1.0370                 1.0381
 Frc consts  --      5.5636                 5.5636                 5.6034
 IR Inten    --     42.7633                 0.0026                51.9049

                     82                     83                     84
                      A                      A                      A
 Frequencies --   3026.9156              3046.3431              3047.1586
 Red. masses --      1.0381                 1.0627                 1.0628
 Frc consts  --      5.6040                 5.8103                 5.8144
 IR Inten    --      0.0000                 0.0002                55.4517

                     85                     86                     87
                      A                      A                      A
 Frequencies --   3101.4576              3101.8908              3109.0072
 Red. masses --      1.1065                 1.1065                 1.1048
 Frc consts  --      6.2709                 6.2728                 6.2918
 IR Inten    --     26.1763                 0.0004                 0.0032

                     88                     89                     90
                      A                      A                      A
 Frequencies --   3109.0221              3114.6555              3114.8708
 Red. masses --      1.1048                 1.1035                 1.1034
 Frc consts  --      6.2917                 6.3070                 6.3073
 IR Inten    --     14.0622                 0.0003                90.1044

                     91                     92                     93
                      A                      A                      A
 Frequencies --   3117.2435              3117.2489              3131.6525
 Red. masses --      1.1047                 1.1047                 1.1046
 Frc consts  --      6.3247                 6.3247                 6.3824
 IR Inten    --      2.0349                57.3448                46.0827

                     94                     95                     96
                      A                      A                      A
 Frequencies --   3131.6572              3376.2719              3380.9897
 Red. masses --      1.1045                 1.0636                 1.0633
 Frc consts  --      6.3824                 7.1436                 7.1614
 IR Inten    --      0.0544                 0.0001               348.9486

                     97                     98                     99
                      A                      A                      A
 Frequencies --   3454.1947              3454.5487              3547.1199
 Red. masses --      1.0551                 1.0553                 1.0834
 Frc consts  --      7.4175                 7.4199                 8.0313
 IR Inten    --      0.0268                26.9397                 0.0041

                    100                    101                    102
                      A                      A                      A
 Frequencies --   3547.4792              3563.9199              3563.9429
 Red. masses --      1.0836                 1.0883                 1.0884
 Frc consts  --      8.0347                 8.1446                 8.1449
 IR Inten    --     29.6411                 1.8087                15.6959

                           ! Non-Optimized Parameters !

 1\1\GINC-C336\Freq\RwB97XD\def2SVPP\C8H24N4\PETERCHAO1\03-Feb-2023\0\\
 #T Geom=AllCheck Guess=TCheck SCRF=Check GenChk RwB97XD/def2SVPP Freq\
 \Dimer\\0,1\C,3.7266380608,0.6767170585,0.5424207395\C,2.5564260413,-0
 .1509416506,0.0052042945\C,3.0778094583,-1.2931572768,-0.8794582325\N,
 1.7749345398,-0.6343402206,1.1437260381\C,1.6088751191,0.7371307638,-0
 .8349304104\N,0.9193215598,1.7768836065,-0.0830155373\H,4.3321334868,1
 .0922658029,-0.2821796708\H,4.3926405383,0.0557682399,1.1692360169\H,3
 .3592413986,1.5089477433,1.1665455426\H,3.6369042499,-0.9151646729,-1.

 Normal termination of Gaussian 16 at Fri Feb  3 11:54:19 2023.
