 Gaussian 16, Revision B.01,
 Gaussian 16:  ES64L-G16RevB.01 20-Dec-2017

 --------------------------------------------------------------
 #T wB97XD//def2svpp Volume=tight Geom=AllCheckpoint Guess=Read
 --------------------------------------------------------------
 Structure from the checkpoint file:  "7.chk"
 -------
 Monomer
 -------
 Charge =  0 Multiplicity = 1

                         Standard orientation:
 ---------------------------------------------------------------------
 Center     Atomic      Atomic             Coordinates (Angstroms)
 Number     Number       Type             X           Y           Z
 ---------------------------------------------------------------------
      1          6           0        0.762735    0.000001   -0.000001
      2          6           0       -0.762735   -0.000001    0.000001
      3          1           0        1.164817   -0.830246   -0.606193
      4          1           0        1.164797   -0.109881    1.022108
      5          1           0        1.164833    0.940109   -0.415888
      6          1           0       -1.164833   -0.940109    0.415887
      7          1           0       -1.164797    0.109882   -1.022108
      8          1           0       -1.164817    0.830246    0.606194
 ---------------------------------------------------------------------

 SCF Done:  E(RwB97XD) =  -79.7320278290     A.U. after    1 cycles

 The electronic state is 1-A.
 Alpha  occ. eigenvalues --  -10.28032 -10.28026  -0.84185  -0.69974  -0.51949
 Alpha  occ. eigenvalues --   -0.51948  -0.45173  -0.42266  -0.42266
 Alpha virt. eigenvalues --    0.14766   0.19493   0.20702   0.20702   0.24108
 Alpha virt. eigenvalues --    0.24108   0.31509   0.50708   0.50708   0.51771
 Alpha virt. eigenvalues --    0.63178   0.63180   0.72170   0.76293   0.79956

 Mulliken charges:
               1
     1  C   -0.357275
     2  C   -0.357275
     3  H    0.119094
     4  H    0.119089
     5  H    0.119092
     6  H    0.119092
     7  H    0.119089
     8  H    0.119094
 Sum of Mulliken charges =  -0.00000

 Dipole moment (field-independent basis, Debye):
    X=             -0.0000    Y=             -0.0000    Z=              0.0000  Tot=              0.0000
 Evaluate density.
 Using the total density.
 Monte-Carlo method of calculating molar volume:
 based on  0.001 e/bohr**3 density envelope.
 Number of points per bohr**3 =  100 CutOff= 1.00D-04
 Using the SCF density.
 There are      1392 points.  Will hold      1392 in memory.
 LenV=  1048510245 MDV=  1048576000.
 Box volume = 2699.051 fraction occupied=0.162
 Integrated density= 1.5963769564491459D+01 error=-2.0362304355085410D+00

 Normal termination of Gaussian 16 at Thu Feb  2 12:53:52 2023.
