 Gaussian 16, Revision B.01,
 Gaussian 16:  ES64L-G16RevB.01 20-Dec-2017

 ----------------------------------------------------------------------
 #T wB97XD/def2svpp opt=tight freq int(grid=ultrafine) scf=(verytight,q
 c) Volume=tight
 ----------------------------------------------------------------------
 -----
 Dimer
 -----
 Symbolic Z-matrix:
 Charge =  0 Multiplicity = 1

 SCF Done:  E(RwB97XD) =  -1314.01318593     a.u. after    7 cycles
 SCF Done:  E(RwB97XD) =  -1314.01786505     a.u. after    7 cycles
 SCF Done:  E(RwB97XD) =  -1314.01807867     a.u. after    5 cycles
 SCF Done:  E(RwB97XD) =  -1314.01814753     a.u. after    4 cycles
 SCF Done:  E(RwB97XD) =  -1314.01821532     a.u. after    4 cycles
 SCF Done:  E(RwB97XD) =  -1314.01826613     a.u. after    4 cycles
 SCF Done:  E(RwB97XD) =  -1314.01834162     a.u. after    4 cycles
 SCF Done:  E(RwB97XD) =  -1314.01842634     a.u. after    5 cycles
 SCF Done:  E(RwB97XD) =  -1314.01844840     a.u. after    5 cycles
 SCF Done:  E(RwB97XD) =  -1314.01845307     a.u. after    3 cycles
 SCF Done:  E(RwB97XD) =  -1314.01847059     a.u. after    2 cycles
 SCF Done:  E(RwB97XD) =  -1314.01847059     a.u. after    2 cycles
 SCF Done:  E(RwB97XD) =  -1314.01847059     a.u. after    2 cycles
 SCF Done:  E(RwB97XD) =  -1314.01847059     a.u. after    2 cycles
 SCF Done:  E(RwB97XD) =  -1314.01847059     a.u. after    2 cycles
 SCF Done:  E(RwB97XD) =  -1314.01847059     a.u. after    2 cycles
 SCF Done:  E(RwB97XD) =  -1314.01847059     a.u. after    2 cycles
 SCF Done:  E(RwB97XD) =  -1314.01847059     a.u. after    2 cycles
 SCF Done:  E(RwB97XD) =  -1314.01847059     a.u. after    2 cycles
 Optimization completed.
    -- Stationary point found.
 Normal termination of Gaussian 16 at Fri Feb  3 11:32:20 2023.

 ---------------------------------------------------------------------
 #T Geom=AllCheck Guess=TCheck SCRF=Check GenChk RwB97XD/def2SVPP Freq
 ---------------------------------------------------------------------
 Structure from the checkpoint file:  "19.chk"
 -----
 Dimer
 -----
 Charge =  0 Multiplicity = 1

                         Standard orientation:
 ---------------------------------------------------------------------
 Center     Atomic      Atomic             Coordinates (Angstroms)
 Number     Number       Type             X           Y           Z
 ---------------------------------------------------------------------
      1          6           0        2.226817   -0.694076   -1.405092
      2          6           0        2.751334   -0.319363   -0.012938
      3          6           0        3.028552   -1.603066    0.788183
      4          6           0        4.039215    0.504259   -0.134520
      5          6           0        1.688638    0.450356    0.781472
      6         17           0        1.168720    2.001331    0.010630
      7          1           0        2.005776    0.205609   -2.003946
      8          1           0        1.306087   -1.298972   -1.329506
      9          1           0        2.980654   -1.289063   -1.950181
     10          1           0        3.402379   -1.373992    1.802437
     11          1           0        3.793988   -2.213420    0.277770
     12          1           0        2.115408   -2.216263    0.886056
     13          1           0        4.815527   -0.071528   -0.668365
     14          1           0        4.438560    0.769966    0.861077
     15          1           0        3.863323    1.439637   -0.692073
     16          1           0        2.065613    0.726499    1.778138
     17          1           0        0.776171   -0.153586    0.900269
     18          6           0       -4.039220   -0.504287    0.134459
     19          6           0       -2.751351    0.319354    0.012871
     20          6           0       -3.028565    1.602993   -0.788353
     21          6           0       -2.226896    0.694174    1.405020
     22          6           0       -1.688607   -0.450400   -0.781441
     23         17           0       -1.168677   -2.001302   -0.010457
     24          1           0       -4.815560    0.071516    0.668245
     25          1           0       -3.863328   -1.439628    0.692073
     26          1           0       -4.438527   -0.770060   -0.861135
     27          1           0       -2.115436    2.216211   -0.886223
     28          1           0       -3.794044    2.213360   -0.278020
     29          1           0       -3.402336    1.373838   -1.802609
     30          1           0       -2.005888   -0.205465    2.003955
     31          1           0       -2.980755    1.289207    1.950027
     32          1           0       -1.306158    1.299056    1.329431
     33          1           0       -0.776146    0.153548   -0.900245
     34          1           0       -2.065536   -0.726631   -1.778100
 ---------------------------------------------------------------------

 SCF Done:  E(RwB97XD) =  -1314.01847059     a.u. after    1 cycles

 The electronic state is 1-A.
 Alpha  occ. eigenvalues -- -101.66468-101.66466 -10.34578 -10.34577 -10.31887
 Alpha  occ. eigenvalues --  -10.31887 -10.28723 -10.28723 -10.28261 -10.28261
 Alpha  occ. eigenvalues --  -10.27972 -10.27972  -9.57175  -9.57174  -7.32525
 Alpha  occ. eigenvalues --   -7.32525  -7.31611  -7.31611  -7.31592  -7.31592
 Alpha  occ. eigenvalues --   -0.96205  -0.95842  -0.90041  -0.89873  -0.78064
 Alpha  occ. eigenvalues --   -0.78009  -0.77604  -0.77572  -0.75611  -0.75590
 Alpha  occ. eigenvalues --   -0.63027  -0.62655  -0.56759  -0.55523  -0.55305
 Alpha  occ. eigenvalues --   -0.55079  -0.53750  -0.53502  -0.50849  -0.50193
 Alpha  occ. eigenvalues --   -0.49509  -0.49314  -0.46112  -0.45989  -0.45828
 Alpha  occ. eigenvalues --   -0.45820  -0.44933  -0.44894  -0.43569  -0.43032
 Alpha  occ. eigenvalues --   -0.41607  -0.41046  -0.41027  -0.40869  -0.38437
 Alpha  occ. eigenvalues --   -0.37319  -0.37279  -0.36324
 Alpha virt. eigenvalues --    0.11096   0.11346   0.13032   0.14390   0.17328
 Alpha virt. eigenvalues --    0.17436   0.18247   0.18389   0.18740   0.18803
 Alpha virt. eigenvalues --    0.19518   0.19893   0.20307   0.20652   0.21849

 Mulliken charges:
               1
     1  C   -0.286412
     2  C   -0.252697
     3  C   -0.280468
     4  C   -0.269140
     5  C   -0.152175
     6  Cl  -0.150482
     7  H    0.124921
     8  H    0.123085
     9  H    0.116320
    10  H    0.115030
    11  H    0.122715
    12  H    0.126728
    13  H    0.117065
    14  H    0.111655
    15  H    0.126874
    16  H    0.149243
    17  H    0.157737
    18  C   -0.269141
    19  C   -0.252696
    20  C   -0.280468
    21  C   -0.286411
    22  C   -0.152176
    23  Cl  -0.150481
    24  H    0.117066
    25  H    0.126874
    26  H    0.111655
    27  H    0.126729
    28  H    0.122716
    29  H    0.115030
    30  H    0.124920
    31  H    0.116320
    32  H    0.123084
    33  H    0.157738
    34  H    0.149243
 Sum of Mulliken charges =  -0.00000

 Dipole moment (field-independent basis, Debye):
    X=             -0.0000    Y=             -0.0001    Z=             -0.0002  Tot=              0.0002
  Exact polarizability: 141.750  -8.334 127.458   2.146  -3.406 113.503
 Approx polarizability: 134.185  -6.844 144.968   2.315  -7.005 129.427
   1 Symmetry operations used in ECPInt.
 ECPInt:  NShTT=    7260 NPrTT=   30132 LenC2=    6975 LenP2D=   20588.
 LDataN:  DoStor=T MaxTD1= 6 Len=  172
 Calling FoFJK, ICntrl=    100127 FMM=F ISym2X=0 I1Cent= 0 IOpClX= 0 NMat=1 NMatS=1 NMatT=0.
 Full mass-weighted force constant matrix:
 Low frequencies ---  -12.3092   -6.9258   -0.0005    0.0019    0.0026    5.8393
 Low frequencies ---   11.4370   20.3119   39.4564
 Diagonal vibrational polarizability:

                      1                      2                      3
                      A                      A                      A
 Frequencies --     11.4369                20.3119                39.0893
 Red. masses --      3.3315                 4.8423                 4.2601
 Frc consts  --      0.0003                 0.0012                 0.0038
 IR Inten    --      2.0060                 0.8829                 0.0000

                      4                      5                      6
                      A                      A                      A
 Frequencies --     67.3036                71.4766                81.8284
 Red. masses --      4.5141                 3.2015                 6.5390
 Frc consts  --      0.0120                 0.0096                 0.0258
 IR Inten    --      0.0000                 0.5194                 0.0000

                      7                      8                      9
                      A                      A                      A
 Frequencies --    143.2602               161.1059               216.0840
 Red. masses --      2.7592                 2.5006                 3.8956
 Frc consts  --      0.0334                 0.0382                 0.1072
 IR Inten    --      6.2081                 0.0000                 0.0000

                     10                     11                     12
                      A                      A                      A
 Frequencies --    220.7656               235.0412               235.2421
 Red. masses --      4.1607                 1.0935                 1.0855
 Frc consts  --      0.1195                 0.0356                 0.0354
 IR Inten    --      3.8069                 0.0014                 0.7401

                     13                     14                     15
                      A                      A                      A
 Frequencies --    284.0117               284.7869               302.7381
 Red. masses --      1.0717                 1.0797                 1.0650
 Frc consts  --      0.0509                 0.0516                 0.0575
 IR Inten    --      0.3371                 0.0000                 0.2596

                     16                     17                     18
                      A                      A                      A
 Frequencies --    303.0559               328.5529               330.6686
 Red. masses --      1.0799                 2.6775                 2.6597
 Frc consts  --      0.0584                 0.1703                 0.1713
 IR Inten    --      0.0008                 2.2994                 0.0000

                     19                     20                     21
                      A                      A                      A
 Frequencies --    344.3770               355.5638               408.9825
 Red. masses --      2.1190                 2.1340                 2.3734
 Frc consts  --      0.1481                 0.1590                 0.2339
 IR Inten    --      0.6915                 0.0000                 0.0000

                     22                     23                     24
                      A                      A                      A
 Frequencies --    409.1441               428.8900               437.3143
 Red. masses --      2.3751                 2.0307                 2.0007
 Frc consts  --      0.2342                 0.2201                 0.2254
 IR Inten    --      0.4939                 2.0645                 0.0000

                     25                     26                     27
                      A                      A                      A
 Frequencies --    482.9241               484.3906               741.0891
 Red. masses --      2.5796                 2.5598                 4.3650
 Frc consts  --      0.3545                 0.3539                 1.4124
 IR Inten    --      0.0000                 4.2566                 0.0000

                     28                     29                     30
                      A                      A                      A
 Frequencies --    743.2048               786.2772               789.5338
 Red. masses --      4.2059                 4.2573                 4.3099
 Frc consts  --      1.3688                 1.5507                 1.5829
 IR Inten    --     19.0354                 0.0000                42.6394

                     31                     32                     33
                      A                      A                      A
 Frequencies --    903.6757               906.7095               938.9778
 Red. masses --      1.5581                 1.5394                 2.0084
 Frc consts  --      0.7497                 0.7457                 1.0433
 IR Inten    --      1.9281                 0.0000                 0.0011

                     34                     35                     36
                      A                      A                      A
 Frequencies --    939.4707               963.9047               963.9871
 Red. masses --      2.0159                 1.5223                 1.5256
 Frc consts  --      1.0483                 0.8333                 0.8353
 IR Inten    --     31.8621                 0.0004                 1.4856

                     37                     38                     39
                      A                      A                      A
 Frequencies --    965.5145               965.6683               978.0078
 Red. masses --      1.5084                 1.5178                 1.2142
 Frc consts  --      0.8285                 0.8339                 0.6843
 IR Inten    --      0.0013                 4.9036                 0.2324

                     40                     41                     42
                      A                      A                      A
 Frequencies --    978.0340              1057.3814              1057.5421
 Red. masses --      1.2124                 1.4215                 1.4195
 Frc consts  --      0.6833                 0.9364                 0.9354
 IR Inten    --      0.0008                 0.7291                 0.0000

                     43                     44                     45
                      A                      A                      A
 Frequencies --   1066.9264              1068.1976              1181.1768
 Red. masses --      1.3753                 1.3749                 1.2047
 Frc consts  --      0.9224                 0.9243                 0.9903
 IR Inten    --      0.0364                 0.0000                 4.9383

                     46                     47                     48
                      A                      A                      A
 Frequencies --   1184.5759              1245.3525              1245.6682
 Red. masses --      1.2079                 2.0118                 2.0452
 Frc consts  --      0.9986                 1.8383                 1.8698
 IR Inten    --      0.0000                16.0286                 0.0000

                     49                     50                     51
                      A                      A                      A
 Frequencies --   1305.6459              1305.8610              1325.4855
 Red. masses --      2.7251                 2.6947                 1.8392
 Frc consts  --      2.7371                 2.7074                 1.9039
 IR Inten    --      0.0000                13.1448                 0.0000

                     52                     53                     54
                      A                      A                      A
 Frequencies --   1327.7298              1340.7414              1351.4822
 Red. masses --      1.8454                 1.4052                 1.3822
 Frc consts  --      1.9167                 1.4883                 1.4875
 IR Inten    --      4.9316                16.8905                 0.0000

                     55                     56                     57
                      A                      A                      A
 Frequencies --   1407.7172              1408.1648              1411.9835
 Red. masses --      1.2821                 1.2832                 1.3304
 Frc consts  --      1.4970                 1.4992                 1.5627
 IR Inten    --      0.0002                22.0446                21.6452

                     58                     59                     60
                      A                      A                      A
 Frequencies --   1412.4668              1435.9038              1437.5923
 Red. masses --      1.3330                 1.2295                 1.2313
 Frc consts  --      1.5668                 1.4936                 1.4993
 IR Inten    --      0.0016                32.0209                 0.0001

                     61                     62                     63
                      A                      A                      A
 Frequencies --   1472.7749              1474.9970              1476.4854
 Red. masses --      1.0711                 1.0447                 1.0602
 Frc consts  --      1.3689                 1.3392                 1.3617
 IR Inten    --      4.1272                 0.0000                 1.8921

                     64                     65                     66
                      A                      A                      A
 Frequencies --   1482.1116              1483.7631              1485.6387
 Red. masses --      1.0487                 1.0453                 1.0438
 Frc consts  --      1.3573                 1.3559                 1.3574
 IR Inten    --      0.0000                 0.1185                 0.0000

                     67                     68                     69
                      A                      A                      A
 Frequencies --   1486.3343              1490.1089              1503.2912
 Red. masses --      1.0425                 1.0659                 1.0694
 Frc consts  --      1.3569                 1.3945                 1.4240
 IR Inten    --      1.1770                 0.0000                 0.9613

                     70                     71                     72
                      A                      A                      A
 Frequencies --   1503.2960              1506.6041              1510.2384
 Red. masses --      1.0683                 1.0689                 1.0753
 Frc consts  --      1.4225                 1.4295                 1.4451
 IR Inten    --     11.7816                21.4182                 0.0000

                     73                     74                     75
                      A                      A                      A
 Frequencies --   1520.6314              1520.9357              3024.7472
 Red. masses --      1.0724                 1.0740                 1.0370
 Frc consts  --      1.4610                 1.4638                 5.5900
 IR Inten    --      0.0000                36.6547                 0.0093

                     76                     77                     78
                      A                      A                      A
 Frequencies --   3024.7697              3029.1554              3029.2119
 Red. masses --      1.0370                 1.0377                 1.0377
 Frc consts  --      5.5902                 5.6102                 5.6103
 IR Inten    --     40.2613                54.0455                 0.0008

                     79                     80                     81
                      A                      A                      A
 Frequencies --   3035.6250              3035.6873              3091.9841
 Red. masses --      1.0378                 1.0378                 1.0601
 Frc consts  --      5.6345                 5.6346                 5.9712
 IR Inten    --     28.3641                 0.0180                20.1769

                     82                     83                     84
                      A                      A                      A
 Frequencies --   3093.0743              3116.2904              3116.2961
 Red. masses --      1.0601                 1.1050                 1.1050
 Frc consts  --      5.9753                 6.3225                 6.3226
 IR Inten    --      0.0000                 2.5916                 0.0284

                     85                     86                     87
                      A                      A                      A
 Frequencies --   3118.9893              3119.1019              3124.0014
 Red. masses --      1.1043                 1.1043                 1.1052
 Frc consts  --      6.3296                 6.3299                 6.3552
 IR Inten    --      0.0012                66.5365                 0.0007

                     88                     89                     90
                      A                      A                      A
 Frequencies --   3124.1072              3126.5575              3126.8463
 Red. masses --      1.1052                 1.1040                 1.1040
 Frc consts  --      6.3557                 6.3587                 6.3597
 IR Inten    --      3.1654                62.7284                 0.0000

                     91                     92                     93
                      A                      A                      A
 Frequencies --   3134.8749              3134.9302              3138.1016
 Red. masses --      1.1044                 1.1044                 1.1047
 Frc consts  --      6.3948                 6.3948                 6.4097
 IR Inten    --     22.6683                 0.0009                 0.9058

                     94                     95                     96
                      A                      A                      A
 Frequencies --   3138.1104              3166.4696              3167.0763
 Red. masses --      1.1047                 1.1115                 1.1111
 Frc consts  --      6.4097                 6.5659                 6.5665
 IR Inten    --     24.8803                 4.8061                 0.0000

                           ! Non-Optimized Parameters !
 Normal termination of Gaussian 16 at Fri Feb  3 11:39:59 2023.
