 Gaussian 16, Revision B.01,
 Gaussian 16:  ES64L-G16RevB.01 20-Dec-2017

 ----------------------------------------------------------------------
 #T wB97XD/def2svpp opt=tight freq int(grid=ultrafine) scf=(verytight,q
 c)
 ----------------------------------------------------------------------
 -----
 dimer
 -----
 Symbolic Z-matrix:
 Charge =  0 Multiplicity = 1

 SCF Done:  E(RwB97XD) =  -1235.47696497     a.u. after    7 cycles
 SCF Done:  E(RwB97XD) =  -1235.48049981     a.u. after    5 cycles
 SCF Done:  E(RwB97XD) =  -1235.48062861     a.u. after    3 cycles
 SCF Done:  E(RwB97XD) =  -1235.48070040     a.u. after    6 cycles
 SCF Done:  E(RwB97XD) =  -1235.48072347     a.u. after    3 cycles
 SCF Done:  E(RwB97XD) =  -1235.48076230     a.u. after    4 cycles
 SCF Done:  E(RwB97XD) =  -1235.48079134     a.u. after    4 cycles
 SCF Done:  E(RwB97XD) =  -1235.48080702     a.u. after    3 cycles
 SCF Done:  E(RwB97XD) =  -1235.48081634     a.u. after    3 cycles
 SCF Done:  E(RwB97XD) =  -1235.48082612     a.u. after    4 cycles
 SCF Done:  E(RwB97XD) =  -1235.48084852     a.u. after    3 cycles
 SCF Done:  E(RwB97XD) =  -1235.48084898     a.u. after    3 cycles
 SCF Done:  E(RwB97XD) =  -1235.48084930     a.u. after    2 cycles
 SCF Done:  E(RwB97XD) =  -1235.48084935     a.u. after    2 cycles
 SCF Done:  E(RwB97XD) =  -1235.48084935     a.u. after    2 cycles
 SCF Done:  E(RwB97XD) =  -1235.48084936     a.u. after    2 cycles
 SCF Done:  E(RwB97XD) =  -1235.48084936     a.u. after    2 cycles
 SCF Done:  E(RwB97XD) =  -1235.48084937     a.u. after    2 cycles
 SCF Done:  E(RwB97XD) =  -1235.48084937     a.u. after    2 cycles
 Optimization completed.
    -- Stationary point found.
 Normal termination of Gaussian 16 at Tue Aug  9 16:30:18 2022.

 ---------------------------------------------------------------------
 #T Geom=AllCheck Guess=TCheck SCRF=Check GenChk RwB97XD/def2SVPP Freq
 ---------------------------------------------------------------------
 Structure from the checkpoint file:  "/scratch/user/peterchao1/peterchao1/6113327_1660079103000000872677030/Gau-200218.chk"
 -----
 dimer
 -----
 Charge =  0 Multiplicity = 1

                         Standard orientation:
 ---------------------------------------------------------------------
 Center     Atomic      Atomic             Coordinates (Angstroms)
 Number     Number       Type             X           Y           Z
 ---------------------------------------------------------------------
      1          6           0       -3.956117    0.142058   -0.000104
      2          6           0       -2.436313    0.265401   -0.000070
      3          6           0       -1.923766    0.952338   -1.260535
      4          6           0       -1.923819    0.952234    1.260473
      5         17           0       -1.767585   -1.452424   -0.000129
      6          1           0       -4.405890    1.151418   -0.000070
      7          1           0       -4.310065   -0.396141    0.894657
      8          1           0       -4.310031   -0.396065   -0.894924
      9          1           0       -2.332066    1.978368   -1.306875
     10          1           0       -2.244128    0.409938   -2.165434
     11          1           0       -0.823881    1.021322   -1.251997
     12          1           0       -2.332122    1.978260    1.306880
     13          1           0       -0.823932    1.021221    1.251999
     14          1           0       -2.244223    0.409760    2.165313
     15          6           0        1.923745   -0.952343    1.260524
     16          6           0        2.436314   -0.265401    0.000071
     17          6           0        3.956118   -0.142057    0.000135
     18          6           0        1.923839   -0.952230   -1.260483
     19         17           0        1.767584    1.452424    0.000121
     20          1           0        2.332045   -1.978373    1.306867
     21          1           0        0.823859   -1.021327    1.251977
     22          1           0        2.244096   -0.409946    2.165430
     23          1           0        4.405891   -1.151418    0.000109
     24          1           0        4.310014    0.396065    0.894963
     25          1           0        4.310084    0.396142   -0.894618
     26          1           0        2.332139   -1.978257   -1.306886
     27          1           0        2.244254   -0.409753   -2.165317
     28          1           0        0.823953   -1.021211   -1.252012
 ---------------------------------------------------------------------

 SCF Done:  E(RwB97XD) =  -1235.48084937     a.u. after    1 cycles

 The electronic state is 1-A.
 Alpha  occ. eigenvalues -- -101.65123-101.65122 -10.36517 -10.36516 -10.29276
 Alpha  occ. eigenvalues --  -10.29276 -10.28766 -10.28765 -10.28765 -10.28764
 Alpha  occ. eigenvalues --   -9.55860  -9.55859  -7.31188  -7.31188  -7.30302
 Alpha  occ. eigenvalues --   -7.30302  -7.30289  -7.30289  -0.96119  -0.95947
 Alpha  occ. eigenvalues --   -0.85412  -0.85198  -0.78788  -0.78630  -0.78521
 Alpha  occ. eigenvalues --   -0.78338  -0.63686  -0.63256  -0.55436  -0.55427
 Alpha  occ. eigenvalues --   -0.54250  -0.53883  -0.53802  -0.53474  -0.48728
 Alpha  occ. eigenvalues --   -0.48639  -0.48510  -0.47949  -0.45602  -0.45173
 Alpha  occ. eigenvalues --   -0.43695  -0.43399  -0.43290  -0.43276  -0.42485
 Alpha  occ. eigenvalues --   -0.42317  -0.37003  -0.36785  -0.36741  -0.36223
 Alpha virt. eigenvalues --    0.10507   0.10848   0.12582   0.14104   0.18685
 Alpha virt. eigenvalues --    0.19432   0.19587   0.19617   0.19944   0.20050
 Alpha virt. eigenvalues --    0.20509   0.21419   0.21571   0.22529   0.23996

 Mulliken charges:
               1
     1  C   -0.239109
     2  C   -0.268696
     3  C   -0.252792
     4  C   -0.252794
     5  Cl  -0.141751
     6  H    0.119853
     7  H    0.130349
     8  H    0.130349
     9  H    0.118620
    10  H    0.126520
    11  H    0.142155
    12  H    0.118620
    13  H    0.142155
    14  H    0.126520
    15  C   -0.252794
    16  C   -0.268696
    17  C   -0.239108
    18  C   -0.252791
    19  Cl  -0.141751
    20  H    0.118620
    21  H    0.142155
    22  H    0.126520
    23  H    0.119853
    24  H    0.130349
    25  H    0.130349
    26  H    0.118620
    27  H    0.126520
    28  H    0.142154
 Sum of Mulliken charges =  -0.00000

 Dipole moment (field-independent basis, Debye):
    X=              0.0000    Y=              0.0000    Z=              0.0000  Tot=              0.0000
  Exact polarizability: 120.065  -9.380 108.671   0.000   0.000  96.150
 Approx polarizability: 112.884  -9.732 128.383  -0.000   0.001 104.157
   1 Symmetry operations used in ECPInt.
 ECPInt:  NShTT=    5050 NPrTT=   21114 LenC2=    4893 LenP2D=   14698.
 LDataN:  DoStor=T MaxTD1= 6 Len=  172
 Calling FoFJK, ICntrl=    100127 FMM=F ISym2X=0 I1Cent= 0 IOpClX= 0 NMat=1 NMatS=1 NMatT=0.
 Full mass-weighted force constant matrix:
 Low frequencies ---   -5.6504   -3.2587    0.0027    0.0034    0.0039    4.8491
 Low frequencies ---   36.3859   60.3083   62.2021
 Diagonal vibrational polarizability:

                      1                      2                      3
                      A                      A                      A
 Frequencies --     36.3859                60.3083                62.2021
 Red. masses --      4.0810                 2.7546                 4.1754
 Frc consts  --      0.0032                 0.0059                 0.0095
 IR Inten    --      1.9611                 0.1877                 5.1291

                      4                      5                      6
                      A                      A                      A
 Frequencies --     62.6119                63.7470                74.6575
 Red. masses --     11.2943                 3.3389                 4.3764
 Frc consts  --      0.0261                 0.0080                 0.0144
 IR Inten    --      0.0000                 0.0000                 0.0000

                      7                      8                      9
                      A                      A                      A
 Frequencies --    253.0599               259.9994               301.7003
 Red. masses --      1.0104                 1.0207                 1.4580
 Frc consts  --      0.0381                 0.0407                 0.0782
 IR Inten    --      0.0000                 0.1253                 0.0000

                     10                     11                     12
                      A                      A                      A
 Frequencies --    304.2557               306.8645               308.6566
 Red. masses --      1.5767                 2.7452                 1.8247
 Frc consts  --      0.0860                 0.1523                 0.1024
 IR Inten    --      1.5081                 0.0000                 2.2646

                     13                     14                     15
                      A                      A                      A
 Frequencies --    311.5690               318.0489               327.2166
 Red. masses --      1.5807                 1.3290                 1.0588
 Frc consts  --      0.0904                 0.0792                 0.0668
 IR Inten    --      0.0000                 4.3930                 0.0000

                     16                     17                     18
                      A                      A                      A
 Frequencies --    330.9207               382.7394               387.1161
 Red. masses --      1.4706                 3.1899                 3.0099
 Frc consts  --      0.0949                 0.2753                 0.2658
 IR Inten    --      0.8148                 7.8223                 0.0000

                     19                     20                     21
                      A                      A                      A
 Frequencies --    418.4252               419.7121               425.3056
 Red. masses --      2.4330                 2.4427                 2.4251
 Frc consts  --      0.2510                 0.2535                 0.2585
 IR Inten    --      0.8315                 0.0000                 0.3476

                     22                     23                     24
                      A                      A                      A
 Frequencies --    428.5046               594.6906               595.7365
 Red. masses --      2.4532                 3.5472                 3.5609
 Frc consts  --      0.2654                 0.7391                 0.7446
 IR Inten    --      0.0000                 0.0000                51.3784

                     25                     26                     27
                      A                      A                      A
 Frequencies --    841.3416               841.4848               954.4320
 Red. masses --      2.8928                 2.8790                 1.5349
 Frc consts  --      1.2065                 1.2011                 0.8238
 IR Inten    --      0.0000                19.3145                 0.0000

                     28                     29                     30
                      A                      A                      A
 Frequencies --    954.7478               955.9953               956.1976
 Red. masses --      1.5356                 1.5269                 1.5271
 Frc consts  --      0.8247                 0.8222                 0.8226
 IR Inten    --      0.4325                 1.5322                 0.0000

                     31                     32                     33
                      A                      A                      A
 Frequencies --    986.3417               986.6591              1062.3099
 Red. masses --      1.2019                 1.2024                 1.4083
 Frc consts  --      0.6889                 0.6897                 0.9364
 IR Inten    --      0.0104                 0.0000                 0.7226

                     34                     35                     36
                      A                      A                      A
 Frequencies --   1063.2374              1063.9969              1065.3714
 Red. masses --      1.4040                 1.4057                 1.3991
 Frc consts  --      0.9351                 0.9376                 0.9356
 IR Inten    --      0.0000                 0.0000                 0.0201

                     37                     38                     39
                      A                      A                      A
 Frequencies --   1194.4345              1203.1338              1281.9751
 Red. masses --      1.9076                 1.9400                 2.5109
 Frc consts  --      1.6035                 1.6546                 2.4313
 IR Inten    --      0.0000               114.9670                 0.0000

                     40                     41                     42
                      A                      A                      A
 Frequencies --   1284.6451              1284.7113              1285.5776
 Red. masses --      2.5486                 2.5119                 2.5127
 Frc consts  --      2.4781                 2.4426                 2.4467
 IR Inten    --     10.5386                 0.0002                23.7085

                     43                     44                     45
                      A                      A                      A
 Frequencies --   1413.7448              1415.1506              1415.8417
 Red. masses --      1.3308                 1.3341                 1.3318
 Frc consts  --      1.5671                 1.5741                 1.5729
 IR Inten    --     22.5785                 0.0000                 0.0000

                     46                     47                     48
                      A                      A                      A
 Frequencies --   1416.6764              1436.9371              1439.2598
 Red. masses --      1.3204                 1.2322                 1.2341
 Frc consts  --      1.5613                 1.4990                 1.5062
 IR Inten    --     35.0635                15.0966                 0.0000

                     49                     50                     51
                      A                      A                      A
 Frequencies --   1465.6140              1467.6241              1478.7420
 Red. masses --      1.0432                 1.0434                 1.0456
 Frc consts  --      1.3202                 1.3242                 1.3471
 IR Inten    --      0.0000                 0.9927                 0.0000

                     52                     53                     54
                      A                      A                      A
 Frequencies --   1479.8443              1481.7899              1484.2943
 Red. masses --      1.0430                 1.0437                 1.0527
 Frc consts  --      1.3458                 1.3502                 1.3664
 IR Inten    --      1.2085                 0.0000                 1.5780

                     55                     56                     57
                      A                      A                      A
 Frequencies --   1492.5452              1494.8895              1498.8530
 Red. masses --      1.0653                 1.0644                 1.0645
 Frc consts  --      1.3982                 1.4015                 1.4090
 IR Inten    --      9.2251                 0.0000                 0.0000

                     58                     59                     60
                      A                      A                      A
 Frequencies --   1501.2303              1511.5575              1519.8403
 Red. masses --      1.0576                 1.0513                 1.0510
 Frc consts  --      1.4043                 1.4152                 1.4304
 IR Inten    --     13.1503                13.9709                 0.0000

                     61                     62                     63
                      A                      A                      A
 Frequencies --   3034.6933              3034.7681              3035.0992
 Red. masses --      1.0383                 1.0380                 1.0381
 Frc consts  --      5.6339                 5.6327                 5.6341
 IR Inten    --      0.0031                12.7335                 0.0001

                     64                     65                     66
                      A                      A                      A
 Frequencies --   3035.8473              3040.0107              3041.2320
 Red. masses --      1.0386                 1.0388                 1.0389
 Frc consts  --      5.6398                 5.6562                 5.6616
 IR Inten    --     33.1659                55.4703                 0.0000

                     67                     68                     69
                      A                      A                      A
 Frequencies --   3128.0316              3128.1127              3128.3194
 Red. masses --      1.1029                 1.1033                 1.1032
 Frc consts  --      6.3581                 6.3607                 6.3613
 IR Inten    --      0.0003                 0.6833                 0.0001

                     70                     71                     72
                      A                      A                      A
 Frequencies --   3128.7926              3133.2957              3133.3837
 Red. masses --      1.1027                 1.1026                 1.1024
 Frc consts  --      6.3599                 6.3780                 6.3770
 IR Inten    --     10.5940                 0.0000                54.4305

                     73                     74                     75
                      A                      A                      A
 Frequencies --   3148.2453              3148.3745              3153.7335
 Red. masses --      1.1064                 1.1063                 1.1070
 Frc consts  --      6.4609                 6.4609                 6.4868
 IR Inten    --      0.0000                20.9648                 0.0000

                     76                     77                     78
                      A                      A                      A
 Frequencies --   3155.8251              3157.7155              3159.9201
 Red. masses --      1.1062                 1.1063                 1.1056
 Frc consts  --      6.4911                 6.4991                 6.5043
 IR Inten    --      4.2628                 5.5476                 0.0000

 Optimization completed.
    -- Stationary point found.
 Normal termination of Gaussian 16 at Tue Aug  9 16:34:27 2022.
