 Gaussian 16, Revision B.01,
 Gaussian 16:  ES64L-G16RevB.01 20-Dec-2017

 ----------------------------------------------------------------------
 #T wB97XD/def2svpp opt=tight freq int(grid=ultrafine) scf=(verytight,q
 c) Volume=tight
 ----------------------------------------------------------------------
 -----
 Dimer
 -----
 Symbolic Z-matrix:
 Charge =  0 Multiplicity = 1

 SCF Done:  E(RwB97XD) =  -1355.63579727     a.u. after    9 cycles
 SCF Done:  E(RwB97XD) =  -1355.63724208     a.u. after   24 cycles
 SCF Done:  E(RwB97XD) =  -1355.63152427     a.u. after   27 cycles
 SCF Done:  E(RwB97XD) =  -1355.64292801     a.u. after   16 cycles
 SCF Done:  E(RwB97XD) =  -1355.64416946     a.u. after   13 cycles
 SCF Done:  E(RwB97XD) =  -1355.64432163     a.u. after   13 cycles
 SCF Done:  E(RwB97XD) =  -1355.64019498     a.u. after   20 cycles
 SCF Done:  E(RwB97XD) =  -1355.64406063     a.u. after   13 cycles
 SCF Done:  E(RwB97XD) =  -1355.64498431     a.u. after    2 cycles
 SCF Done:  E(RwB97XD) =  -1355.64523797     a.u. after   11 cycles
 SCF Done:  E(RwB97XD) =  -1355.64548366     a.u. after    2 cycles
 SCF Done:  E(RwB97XD) =  -1355.64548376     a.u. after    2 cycles
 SCF Done:  E(RwB97XD) =  -1355.64548391     a.u. after    2 cycles
 SCF Done:  E(RwB97XD) =  -1355.64548401     a.u. after    2 cycles
 SCF Done:  E(RwB97XD) =  -1355.64548404     a.u. after    2 cycles
 SCF Done:  E(RwB97XD) =  -1355.64548406     a.u. after    2 cycles
 SCF Done:  E(RwB97XD) =  -1355.64548405     a.u. after    2 cycles
 SCF Done:  E(RwB97XD) =  -1355.64548406     a.u. after    2 cycles
 SCF Done:  E(RwB97XD) =  -1355.64548405     a.u. after    2 cycles
 Optimization completed.
    -- Stationary point found.
 Normal termination of Gaussian 16 at Mon Apr  1 18:53:29 2024.

 ---------------------------------------------------------------------
 #T Geom=AllCheck Guess=TCheck SCRF=Check GenChk RwB97XD/def2SVPP Freq
 ---------------------------------------------------------------------
 Structure from the checkpoint file:  "dimer.chk"
 -----
 Dimer
 -----
 Charge =  0 Multiplicity = 1

                         Standard orientation:
 ---------------------------------------------------------------------
 Center     Atomic      Atomic             Coordinates (Angstroms)
 Number     Number       Type             X           Y           Z
 ---------------------------------------------------------------------
      1          8           0        2.356731   -2.374427    1.226018
      2          6           0        1.782517   -1.114510    1.285710
      3          6           0        2.450225   -0.115589    0.309123
      4          6           0        3.981748   -0.157320    0.360856
      5          8           0        4.586348    0.572510   -0.650307
      6          7           0        2.028067   -0.406541   -1.116714
      7          8           0        1.663888    0.509406   -1.807067
      8          8           0        2.141566   -1.559960   -1.458226
      9          7           0        1.927074    1.273484    0.613104
     10          8           0        0.736520    1.384011    0.777844
     11          8           0        2.730208    2.173839    0.690661
     12          1           0        2.163732   -2.755005    0.354214
     13          1           0        1.943615   -0.725020    2.304221
     14          1           0        0.696412   -1.118665    1.093312
     15          1           0        4.268302   -1.211044    0.239213
     16          1           0        4.282429    0.156414    1.379365
     17          1           0        4.420435    1.513511   -0.487259
     18          8           0       -2.356738    2.374424   -1.226020
     19          6           0       -1.782527    1.114506   -1.285718
     20          6           0       -2.450227    0.115588   -0.309124
     21          6           0       -3.981751    0.157320   -0.360845
     22          8           0       -4.586343   -0.572508    0.650324
     23          7           0       -1.927078   -1.273487   -0.613103
     24          8           0       -0.736526   -1.384015   -0.777855
     25          8           0       -2.730213   -2.173842   -0.690650
     26          7           0       -2.028058    0.406545    1.116709
     27          8           0       -2.141559    1.559965    1.458218
     28          8           0       -1.663871   -0.509400    1.807061
     29          1           0       -2.163730    2.755002   -0.354218
     30          1           0       -0.696420    1.118660   -1.093329
     31          1           0       -1.943634    0.725015   -2.304227
     32          1           0       -4.282439   -0.156417   -1.379351
     33          1           0       -4.268302    1.211044   -0.239202
     34          1           0       -4.420434   -1.513509    0.487276
 ---------------------------------------------------------------------

 SCF Done:  E(RwB97XD) =  -1355.64548405     a.u. after    1 cycles

 The electronic state is 1-A.
 Alpha  occ. eigenvalues --  -19.34057 -19.34057 -19.33934 -19.33929 -19.33253
 Alpha  occ. eigenvalues --  -19.33252 -19.33108 -19.33107 -19.28630 -19.28629
 Alpha  occ. eigenvalues --  -19.28289 -19.28288 -14.73191 -14.73190 -14.72559
 Alpha  occ. eigenvalues --  -14.72558 -10.43780 -10.43779 -10.39042 -10.39041
 Alpha  occ. eigenvalues --  -10.38763 -10.38763  -1.39423  -1.39336  -1.37758
 Alpha  occ. eigenvalues --   -1.37682  -1.21222  -1.21197  -1.20648  -1.20632
 Alpha  occ. eigenvalues --   -1.15955  -1.15952  -1.15322  -1.15318  -1.00334
 Alpha  occ. eigenvalues --   -1.00309  -0.83632  -0.83573  -0.82702  -0.82699
 Alpha  occ. eigenvalues --   -0.81549  -0.81349  -0.71814  -0.71284  -0.70383
 Alpha  occ. eigenvalues --   -0.70305  -0.69232  -0.68688  -0.68163  -0.67899
 Alpha  occ. eigenvalues --   -0.65820  -0.65469  -0.65250  -0.64407  -0.63930
 Alpha  occ. eigenvalues --   -0.63826  -0.62731  -0.62610  -0.60025  -0.59874
 Alpha  occ. eigenvalues --   -0.57446  -0.57041  -0.56184  -0.56136  -0.53988
 Alpha  occ. eigenvalues --   -0.53889  -0.48264  -0.48167  -0.47252  -0.47224
 Alpha  occ. eigenvalues --   -0.45540  -0.44868  -0.43930  -0.43790  -0.43562
 Alpha  occ. eigenvalues --   -0.43465  -0.43382  -0.43252  -0.42853  -0.42833
 Alpha  occ. eigenvalues --   -0.41852  -0.41817  -0.40139  -0.40109  -0.39004
 Alpha  occ. eigenvalues --   -0.38981
 Alpha virt. eigenvalues --   -0.04406  -0.04272  -0.02735  -0.02698   0.11448
 Alpha virt. eigenvalues --    0.11806   0.13501   0.13535   0.14991   0.15278
 Alpha virt. eigenvalues --    0.16311   0.16791   0.17473   0.17896   0.19470

 Mulliken charges:
               1
     1  O   -0.461431
     2  C    0.079267
     3  C   -0.168939
     4  C    0.121106
     5  O   -0.471235
     6  N    0.279470
     7  O   -0.210419
     8  O   -0.232948
     9  N    0.255401
    10  O   -0.220593
    11  O   -0.228195
    12  H    0.344425
    13  H    0.139508
    14  H    0.158390
    15  H    0.148598
    16  H    0.130634
    17  H    0.336960
    18  O   -0.461431
    19  C    0.079268
    20  C   -0.168939
    21  C    0.121106
    22  O   -0.471234
    23  N    0.255401
    24  O   -0.220592
    25  O   -0.228195
    26  N    0.279470
    27  O   -0.232948
    28  O   -0.210419
    29  H    0.344425
    30  H    0.158390
    31  H    0.139508
    32  H    0.130634
    33  H    0.148599
    34  H    0.336960
 Sum of Mulliken charges =   0.00000

 Dipole moment (field-independent basis, Debye):
    X=             -0.0000    Y=             -0.0000    Z=              0.0000  Tot=              0.0000
  Exact polarizability: 142.410   1.596 133.855   3.946  -1.662 105.536
 Approx polarizability: 159.837   2.449 185.530   1.401  -4.360 125.846
   1 Symmetry operations used in ECPInt.
 ECPInt:  NShTT=   12246 NPrTT=   49150 LenC2=   11154 LenP2D=   29928.
 LDataN:  DoStor=T MaxTD1= 6 Len=  172
 Calling FoFJK, ICntrl=    100127 FMM=F ISym2X=0 I1Cent= 0 IOpClX= 0 NMat=1 NMatS=1 NMatT=0.
 Full mass-weighted force constant matrix:
 Low frequencies ---  -16.7240   -3.6737   -0.0011   -0.0009   -0.0008    3.5085
 Low frequencies ---   24.5176   36.5799   44.3014
 Diagonal vibrational polarizability:

                      1                      2                      3
                      A                      A                      A
 Frequencies --     24.5176                36.5799                44.1386
 Red. masses --      9.3234                 7.5447                 8.9214
 Frc consts  --      0.0033                 0.0059                 0.0102
 IR Inten    --      0.8094                 2.0245                 0.0000

                      4                      5                      6
                      A                      A                      A
 Frequencies --     44.8284                58.6831                66.0225
 Red. masses --      8.3739                 9.5726                10.3221
 Frc consts  --      0.0099                 0.0194                 0.0265
 IR Inten    --      0.5319                 0.0000                 0.0000

                      7                      8                      9
                      A                      A                      A
 Frequencies --     82.2526                87.5803               108.5125
 Red. masses --     11.6272                12.3195                12.7579
 Frc consts  --      0.0463                 0.0557                 0.0885
 IR Inten    --      1.3825                 0.0000                 0.0000

                     10                     11                     12
                      A                      A                      A
 Frequencies --    108.5662               142.1577               146.4747
 Red. masses --     13.1556                 5.4422                 5.9950
 Frc consts  --      0.0914                 0.0648                 0.0758
 IR Inten    --      0.4327                 0.0000                 5.9659

                     13                     14                     15
                      A                      A                      A
 Frequencies --    155.7111               156.3283               189.0870
 Red. masses --      4.1378                 4.0149                 7.1869
 Frc consts  --      0.0591                 0.0578                 0.1514
 IR Inten    --      0.0000                12.0775                 0.0000

                     16                     17                     18
                      A                      A                      A
 Frequencies --    194.9184               219.7735               222.9392
 Red. masses --      6.4150                 5.6450                 5.0569
 Frc consts  --      0.1436                 0.1606                 0.1481
 IR Inten    --     15.0120                 7.1927                 0.0000

                     19                     20                     21
                      A                      A                      A
 Frequencies --    237.9635               238.7571               294.5842
 Red. masses --      8.4296                 9.2720                 2.8420
 Frc consts  --      0.2812                 0.3114                 0.1453
 IR Inten    --      0.0000                15.0143                 0.0000

                     22                     23                     24
                      A                      A                      A
 Frequencies --    296.7312               327.0306               328.5700
 Red. masses --      2.7750                 2.7688                 2.8550
 Frc consts  --      0.1440                 0.1745                 0.1816
 IR Inten    --     15.5738                 6.8163                 0.0000

                     25                     26                     27
                      A                      A                      A
 Frequencies --    375.7810               376.4837               424.1110
 Red. masses --      6.3317                 6.0299                 6.9803
 Frc consts  --      0.5268                 0.5036                 0.7398
 IR Inten    --      4.1125                 0.0000                 0.0322

                     28                     29                     30
                      A                      A                      A
 Frequencies --    424.1122               437.2172               437.4601
 Red. masses --      7.0255                11.1216                11.5722
 Frc consts  --      0.7445                 1.2526                 1.3048
 IR Inten    --     10.8297                 0.0000                 8.1562

                     31                     32                     33
                      A                      A                      A
 Frequencies --    495.9451               501.4843               536.0496
 Red. masses --      1.2673                 1.2921                 1.1368
 Frc consts  --      0.1837                 0.1915                 0.1925
 IR Inten    --      0.0000               332.3950               271.9102

                     34                     35                     36
                      A                      A                      A
 Frequencies --    537.0227               584.8778               585.7640
 Red. masses --      1.1591                 4.5648                 5.3116
 Frc consts  --      0.1969                 0.9200                 1.0738
 IR Inten    --      0.0001                 0.0001               182.8669

                     37                     38                     39
                      A                      A                      A
 Frequencies --    592.2397               595.5454               735.1275
 Red. masses --      5.1170                 4.2399                 7.2791
 Frc consts  --      1.0575                 0.8860                 2.3177
 IR Inten    --      0.0000                74.8237                11.1259

                     40                     41                     42
                      A                      A                      A
 Frequencies --    737.8453               760.3479               762.1922
 Red. masses --      7.5733                 3.5564                 3.4691
 Frc consts  --      2.4292                 1.2114                 1.1874
 IR Inten    --      0.0000                 0.0000                24.1379

                     43                     44                     45
                      A                      A                      A
 Frequencies --    807.1502               809.9747               903.0077
 Red. masses --      6.3523                 5.9781                 6.0805
 Frc consts  --      2.4383                 2.3108                 2.9213
 IR Inten    --     12.6149                 0.0000                 0.0000

                     46                     47                     48
                      A                      A                      A
 Frequencies --    905.2563               916.4827               921.9237
 Red. masses --      7.7993                 5.8140                 4.9457
 Frc consts  --      3.7657                 2.8772                 2.4767
 IR Inten    --     29.0883                 0.0000                68.0992

                     49                     50                     51
                      A                      A                      A
 Frequencies --    965.6209               966.5826              1097.5339
 Red. masses --      1.6108                 1.6142                 2.1902
 Frc consts  --      0.8849                 0.8886                 1.5544
 IR Inten    --     39.4026                 0.0000                 0.0000

                     52                     53                     54
                      A                      A                      A
 Frequencies --   1097.8507              1117.2196              1117.5416
 Red. masses --      2.2068                 3.9171                 3.8446
 Frc consts  --      1.5671                 2.8806                 2.8290
 IR Inten    --     81.4309                 0.0001                54.3311

                     55                     56                     57
                      A                      A                      A
 Frequencies --   1166.5678              1168.0826              1191.1917
 Red. masses --      4.1220                 4.1615                 4.9630
 Frc consts  --      3.3050                 3.3454                 4.1491
 IR Inten    --    172.4446                 0.0000                 0.0000

                     58                     59                     60
                      A                      A                      A
 Frequencies --   1192.0185              1203.5776              1203.9456
 Red. masses --      4.9255                 3.4071                 3.3763
 Frc consts  --      4.1235                 2.9080                 2.8834
 IR Inten    --    229.1636                 0.0000                21.7951

                     61                     62                     63
                      A                      A                      A
 Frequencies --   1259.3032              1260.5239              1305.1447
 Red. masses --      1.2528                 1.2405                 1.5320
 Frc consts  --      1.1706                 1.1613                 1.5375
 IR Inten    --    101.3477                 0.0000                93.8599

                     64                     65                     66
                      A                      A                      A
 Frequencies --   1306.4403              1406.7597              1407.4059
 Red. masses --      1.5350                 1.3227                 1.3231
 Frc consts  --      1.5436                 1.5423                 1.5441
 IR Inten    --      0.0000                 0.0000                39.4767

                     67                     68                     69
                      A                      A                      A
 Frequencies --   1412.8271              1416.9535              1435.0083
 Red. masses --      1.2780                 1.2786                 1.2976
 Frc consts  --      1.5030                 1.5125                 1.5744
 IR Inten    --     21.2840                 0.0000               108.2998

                     70                     71                     72
                      A                      A                      A
 Frequencies --   1435.3708              1449.9531              1451.2738
 Red. masses --      1.2877                 1.2529                 1.2617
 Frc consts  --      1.5631                 1.5520                 1.5656
 IR Inten    --      0.0000               171.5248                 0.0000

                     73                     74                     75
                      A                      A                      A
 Frequencies --   1484.0029              1484.9594              1495.5501
 Red. masses --     10.5758                 3.5250                 1.1299
 Frc consts  --     13.7224                 4.5798                 1.4890
 IR Inten    --      0.0000               157.9929                 0.0002

                     76                     77                     78
                      A                      A                      A
 Frequencies --   1495.5808              1497.8184              1502.0719
 Red. masses --      1.1453                 1.1086                 1.3839
 Frc consts  --      1.5094                 1.4654                 1.8397
 IR Inten    --     19.2586                 0.0000                78.0283

                     79                     80                     81
                      A                      A                      A
 Frequencies --   1532.6615              1533.2026              1768.8276
 Red. masses --      6.5331                 6.5973                13.1798
 Frc consts  --      9.0420                 9.1372                24.2957
 IR Inten    --      0.0000                90.1111               754.6835

                     82                     83                     84
                      A                      A                      A
 Frequencies --   1774.0189              1787.6548              1791.9136
 Red. masses --     13.3755                13.6634                13.5285
 Frc consts  --     24.8015                25.7262                25.5937
 IR Inten    --      0.0000                 0.0000               521.8019

                     85                     86                     87
                      A                      A                      A
 Frequencies --   3046.2901              3046.3189              3083.2542
 Red. masses --      1.0714                 1.0714                 1.0603
 Frc consts  --      5.8580                 5.8580                 5.9389
 IR Inten    --      0.0012                37.2472                 0.0181

                     88                     89                     90
                      A                      A                      A
 Frequencies --   3083.2617              3148.7614              3148.9584
 Red. masses --      1.0603                 1.1107                 1.1106
 Frc consts  --      5.9386                 6.4883                 6.4886
 IR Inten    --     13.0113                 0.0000                 2.8195

                     91                     92                     93
                      A                      A                      A
 Frequencies --   3173.1286              3173.1365              3726.3726
 Red. masses --      1.0981                 1.0981                 1.0654
 Frc consts  --      6.5143                 6.5143                 8.7166
 IR Inten    --      0.0000                 1.0884                 0.0003

                     94                     95                     96
                      A                      A                      A
 Frequencies --   3726.7926              3743.1902              3743.3395
 Red. masses --      1.0655                 1.0652                 1.0652
 Frc consts  --      8.7187                 8.7936                 8.7943
 IR Inten    --    148.8910                 0.0011               135.6122

 Optimization completed.
    -- Stationary point found.
 Normal termination of Gaussian 16 at Mon Apr  1 19:11:05 2024.
