 Gaussian 16, Revision B.01,
 Gaussian 16:  ES64L-G16RevB.01 20-Dec-2017

 ----------------------------------------------------------------------
 #T wB97XD/def2svpp opt=tight freq int(grid=ultrafine) scf=(verytight,q
 c) Volume=tight
 ----------------------------------------------------------------------
 -----
 Dimer
 -----
 Symbolic Z-matrix:
 Charge =  0 Multiplicity = 1

 SCF Done:  E(RwB97XD) =  -806.220444479     a.u. after    8 cycles
 SCF Done:  E(RwB97XD) =  -806.223478483     a.u. after    9 cycles
 SCF Done:  E(RwB97XD) =  -806.222981417     a.u. after   10 cycles
 SCF Done:  E(RwB97XD) =  -806.219949278     a.u. after   11 cycles
 SCF Done:  E(RwB97XD) =  -806.219514720     a.u. after    9 cycles
 SCF Done:  E(RwB97XD) =  -806.223725551     a.u. after    3 cycles
 SCF Done:  E(RwB97XD) =  -806.224795239     a.u. after    9 cycles
 SCF Done:  E(RwB97XD) =  -806.224626140     a.u. after   10 cycles
 SCF Done:  E(RwB97XD) =  -806.225438932     a.u. after    9 cycles
 SCF Done:  E(RwB97XD) =  -806.225619726     a.u. after    7 cycles
 SCF Done:  E(RwB97XD) =  -806.225973028     a.u. after    2 cycles
 SCF Done:  E(RwB97XD) =  -806.225973747     a.u. after    2 cycles
 SCF Done:  E(RwB97XD) =  -806.225974166     a.u. after    2 cycles
 SCF Done:  E(RwB97XD) =  -806.225974227     a.u. after    2 cycles
 SCF Done:  E(RwB97XD) =  -806.225974238     a.u. after    2 cycles
 SCF Done:  E(RwB97XD) =  -806.225974243     a.u. after    2 cycles
 SCF Done:  E(RwB97XD) =  -806.225974245     a.u. after    2 cycles
 SCF Done:  E(RwB97XD) =  -806.225974245     a.u. after    2 cycles
 SCF Done:  E(RwB97XD) =  -806.225974245     a.u. after    2 cycles
 Optimization completed.
    -- Stationary point found.
 Normal termination of Gaussian 16 at Mon Apr  1 16:57:27 2024.

 ---------------------------------------------------------------------
 #T Geom=AllCheck Guess=TCheck SCRF=Check GenChk RwB97XD/def2SVPP Freq
 ---------------------------------------------------------------------
 Structure from the checkpoint file:  "dimer.chk"
 -----
 Dimer
 -----
 Charge =  0 Multiplicity = 1

                         Standard orientation:
 ---------------------------------------------------------------------
 Center     Atomic      Atomic             Coordinates (Angstroms)
 Number     Number       Type             X           Y           Z
 ---------------------------------------------------------------------
      1          6           0        4.669970   -1.027658   -0.313549
      2          6           0        4.022793    0.335278   -0.078622
      3          6           0        2.478405    0.340608    0.028541
      4          7           0        1.824992   -0.444071   -1.022451
      5          6           0        2.061650   -0.223602    1.403972
      6          8           0        0.716880   -0.585684    1.525244
      7          6           0        2.009232    1.805132   -0.097030
      8          8           0        0.685416    2.022004    0.279502
      9          1           0        5.767829   -0.930825   -0.355675
     10          1           0        4.342979   -1.472191   -1.269129
     11          1           0        4.434829   -1.747346    0.489467
     12          1           0        4.311578    1.010319   -0.907377
     13          1           0        4.441715    0.789315    0.838758
     14          1           0        1.963506   -1.447129   -0.897611
     15          1           0        2.192166   -0.192419   -1.941533
     16          1           0        2.343930    0.519053    2.176759
     17          1           0        2.636656   -1.142118    1.614839
     18          1           0        0.104672    0.162994    1.326741
     19          1           0        2.199342    2.144712   -1.139706
     20          1           0        2.640015    2.427496    0.562516
     21          1           0        0.093575    1.613003   -0.394397
     22          6           0       -4.669987    1.027640    0.313505
     23          6           0       -4.022798   -0.335291    0.078580
     24          6           0       -2.478407   -0.340612   -0.028546
     25          7           0       -1.825018    0.444079    1.022450
     26          6           0       -2.009229   -1.805131    0.097050
     27          8           0       -0.685404   -2.022003   -0.279448
     28          6           0       -2.061626    0.223587   -1.403977
     29          8           0       -0.716869    0.585723   -1.525216
     30          1           0       -4.434807    1.747345   -0.489486
     31          1           0       -4.343040    1.472152    1.269109
     32          1           0       -5.767847    0.930806    0.355577
     33          1           0       -4.441694   -0.789320   -0.838817
     34          1           0       -4.311602   -1.010342    0.907319
     35          1           0       -2.192184    0.192411    1.941530
     36          1           0       -1.963566    1.447134    0.897615
     37          1           0       -2.639994   -2.427505   -0.562505
     38          1           0       -2.199365   -2.144702    1.139725
     39          1           0       -0.093581   -1.612976    0.394450
     40          1           0       -2.636664    1.142074   -1.614884
     41          1           0       -2.343851   -0.519096   -2.176757
     42          1           0       -0.104624   -0.162930   -1.326718
 ---------------------------------------------------------------------

 SCF Done:  E(RwB97XD) =  -806.225974245     a.u. after    1 cycles

 The electronic state is 1-A.
 Alpha  occ. eigenvalues --  -19.23900 -19.23896 -19.22236 -19.22235 -14.43001
 Alpha  occ. eigenvalues --  -14.43000 -10.33230 -10.33229 -10.32698 -10.32698
 Alpha  occ. eigenvalues --  -10.32597 -10.32597 -10.29563 -10.29562 -10.29043
 Alpha  occ. eigenvalues --  -10.29042  -1.11465  -1.10093  -1.09160  -1.07983
 Alpha  occ. eigenvalues --   -0.99127  -0.98720  -0.87296  -0.86943  -0.81768
 Alpha  occ. eigenvalues --   -0.81165  -0.76234  -0.75861  -0.71108  -0.70988
 Alpha  occ. eigenvalues --   -0.66126  -0.65986  -0.62082  -0.61089  -0.59283
 Alpha  occ. eigenvalues --   -0.58897  -0.57367  -0.56213  -0.55194  -0.55144
 Alpha  occ. eigenvalues --   -0.53870  -0.53527  -0.52284  -0.52124  -0.49543
 Alpha  occ. eigenvalues --   -0.49272  -0.48453  -0.48406  -0.47942  -0.47599
 Alpha  occ. eigenvalues --   -0.45562  -0.45029  -0.44701  -0.44432  -0.43697
 Alpha  occ. eigenvalues --   -0.43610  -0.41350  -0.41114  -0.39129  -0.38413
 Alpha  occ. eigenvalues --   -0.35068  -0.34662  -0.34271  -0.33916  -0.32315
 Alpha  occ. eigenvalues --   -0.31958
 Alpha virt. eigenvalues --    0.12094   0.12221   0.15923   0.16052   0.16240
 Alpha virt. eigenvalues --    0.16398   0.17079   0.18210   0.18470   0.19061
 Alpha virt. eigenvalues --    0.20446   0.21168   0.21312   0.21511   0.22016

 Mulliken charges:
               1
     1  C   -0.321011
     2  C   -0.190753
     3  C   -0.197713
     4  N   -0.514758
     5  C    0.084564
     6  O   -0.537641
     7  C    0.093246
     8  O   -0.519349
     9  H    0.127751
    10  H    0.104608
    11  H    0.125114
    12  H    0.100592
    13  H    0.105178
    14  H    0.246877
    15  H    0.234759
    16  H    0.094739
    17  H    0.096077
    18  H    0.358684
    19  H    0.081970
    20  H    0.091476
    21  H    0.335596
    22  C   -0.321012
    23  C   -0.190753
    24  C   -0.197712
    25  N   -0.514755
    26  C    0.093244
    27  O   -0.519349
    28  C    0.084565
    29  O   -0.537644
    30  H    0.125113
    31  H    0.104609
    32  H    0.127751
    33  H    0.105178
    34  H    0.100592
    35  H    0.234756
    36  H    0.246874
    37  H    0.091475
    38  H    0.081968
    39  H    0.335596
    40  H    0.096075
    41  H    0.094738
    42  H    0.358683
 Sum of Mulliken charges =   0.00000

 Dipole moment (field-independent basis, Debye):
    X=              0.0001    Y=             -0.0000    Z=             -0.0001  Tot=              0.0002
  Exact polarizability: 167.369   0.179 125.121   1.955   1.029 119.806
 Approx polarizability: 150.094   2.232 138.431   2.394   1.688 137.829
   1 Symmetry operations used in ECPInt.
 ECPInt:  NShTT=   11026 NPrTT=   44242 LenC2=   10537 LenP2D=   29878.
 LDataN:  DoStor=T MaxTD1= 6 Len=  172
 Calling FoFJK, ICntrl=    100127 FMM=F ISym2X=0 I1Cent= 0 IOpClX= 0 NMat=1 NMatS=1 NMatT=0.
 Full mass-weighted force constant matrix:
 Low frequencies ---   -1.5622   -0.0009   -0.0006    0.0005    6.1425   10.5455
 Low frequencies ---   49.8074   69.7130   70.6734
 Diagonal vibrational polarizability:

                      1                      2                      3
                      A                      A                      A
 Frequencies --     49.8074                69.6194                70.6734
 Red. masses --      3.9577                 3.5765                 3.7513
 Frc consts  --      0.0058                 0.0102                 0.0110
 IR Inten    --      4.7264                 0.0000                 2.4963

                      4                      5                      6
                      A                      A                      A
 Frequencies --     91.6108               103.4914               117.4435
 Red. masses --      1.9415                 2.9169                 2.4403
 Frc consts  --      0.0096                 0.0184                 0.0198
 IR Inten    --      0.9288                 0.0000                12.6463

                      7                      8                      9
                      A                      A                      A
 Frequencies --    118.3992               141.6540               171.0226
 Red. masses --      2.8924                 3.4445                 3.0590
 Frc consts  --      0.0239                 0.0407                 0.0527
 IR Inten    --      0.0001                 0.0000                 0.0000

                     10                     11                     12
                      A                      A                      A
 Frequencies --    199.4371               203.6016               212.5201
 Red. masses --      2.5484                 2.2113                 2.7419
 Frc consts  --      0.0597                 0.0540                 0.0730
 IR Inten    --      0.0000                 2.2913                 4.5170

                     13                     14                     15
                      A                      A                      A
 Frequencies --    242.1376               251.4220               272.0512
 Red. masses --      2.7966                 2.4195                 2.0815
 Frc consts  --      0.0966                 0.0901                 0.0908
 IR Inten    --      0.0000                 3.7494                 0.0000

                     16                     17                     18
                      A                      A                      A
 Frequencies --    279.5792               301.0233               304.0584
 Red. masses --      2.9916                 2.4274                 2.5932
 Frc consts  --      0.1378                 0.1296                 0.1413
 IR Inten    --      6.3623                11.2168                 0.0000

                     19                     20                     21
                      A                      A                      A
 Frequencies --    320.3307               332.8699               366.2886
 Red. masses --      2.5725                 2.6257                 2.2422
 Frc consts  --      0.1555                 0.1714                 0.1772
 IR Inten    --     15.3579                 0.0000                 0.0000

                     22                     23                     24
                      A                      A                      A
 Frequencies --    381.6746               395.5846               410.8602
 Red. masses --      2.8475                 1.7149                 2.6252
 Frc consts  --      0.2444                 0.1581                 0.2611
 IR Inten    --      2.6428                 0.0000                 4.6748

                     25                     26                     27
                      A                      A                      A
 Frequencies --    413.5113               420.2997               439.6140
 Red. masses --      4.2166                 2.5742                 1.9133
 Frc consts  --      0.4248                 0.2679                 0.2179
 IR Inten    --      0.0000                 2.6682                 0.0000

                     28                     29                     30
                      A                      A                      A
 Frequencies --    457.1194               515.7277               540.4918
 Red. masses --      1.6569                 2.3573                 2.5098
 Frc consts  --      0.2040                 0.3694                 0.4320
 IR Inten    --     25.5937                32.1320                 0.0000

                     31                     32                     33
                      A                      A                      A
 Frequencies --    606.9310               607.7849               705.2390
 Red. masses --      2.4839                 2.3835                 1.1348
 Frc consts  --      0.5391                 0.5188                 0.3325
 IR Inten    --     20.8409                 0.0001                 0.0000

                     34                     35                     36
                      A                      A                      A
 Frequencies --    778.2595               790.0556               792.7660
 Red. masses --      1.4492                 1.3458                 1.1716
 Frc consts  --      0.5172                 0.4949                 0.4338
 IR Inten    --     50.2794                 0.0000               226.1128

                     37                     38                     39
                      A                      A                      A
 Frequencies --    807.9810               812.6731               859.4618
 Red. masses --      1.8739                 2.6962                 1.2952
 Frc consts  --      0.7208                 1.0492                 0.5637
 IR Inten    --     55.6357                 0.0000               274.5755

                     40                     41                     42
                      A                      A                      A
 Frequencies --    877.2167               914.9441               951.4680
 Red. masses --      1.6501                 1.5839                 1.4781
 Frc consts  --      0.7481                 0.7812                 0.7884
 IR Inten    --      0.0000               217.8178                 0.0000

                     43                     44                     45
                      A                      A                      A
 Frequencies --    962.2253               979.0402               982.8360
 Red. masses --      1.5538                 1.6336                 1.4819
 Frc consts  --      0.8476                 0.9226                 0.8434
 IR Inten    --    117.1708                 0.0000               267.0665

                     46                     47                     48
                      A                      A                      A
 Frequencies --    994.5461               994.8594              1031.6590
 Red. masses --      1.6603                 1.7856                 1.9701
 Frc consts  --      0.9676                 1.0412                 1.2354
 IR Inten    --      2.0185                 0.0000                 0.0000

                     49                     50                     51
                      A                      A                      A
 Frequencies --   1036.7418              1047.7997              1066.7851
 Red. masses --      1.8594                 1.1229                 1.7672
 Frc consts  --      1.1775                 0.7263                 1.1849
 IR Inten    --     38.2756                 0.0000                 7.0467

                     52                     53                     54
                      A                      A                      A
 Frequencies --   1068.0721              1116.0916              1123.1877
 Red. masses --      1.5161                 1.7512                 1.5863
 Frc consts  --      1.0190                 1.2852                 1.1791
 IR Inten    --      0.0000                 0.0000                15.1815

                     55                     56                     57
                      A                      A                      A
 Frequencies --   1140.6018              1143.8422              1166.7322
 Red. masses --      1.8918                 2.5487                 4.3036
 Frc consts  --      1.4501                 1.9647                 3.4516
 IR Inten    --      0.0000                70.5187                 0.0000

                     58                     59                     60
                      A                      A                      A
 Frequencies --   1173.9643              1176.0499              1191.2610
 Red. masses --      4.3425                 3.6776                 2.9644
 Frc consts  --      3.5261                 2.9968                 2.4786
 IR Inten    --     42.2592                 0.0000               530.9629

                     61                     62                     63
                      A                      A                      A
 Frequencies --   1204.6653              1229.9302              1240.1602
 Red. masses --      1.9056                 1.4728                 1.7796
 Frc consts  --      1.6294                 1.3126                 1.6126
 IR Inten    --     38.9939                 0.0000                 0.0000

                     64                     65                     66
                      A                      A                      A
 Frequencies --   1258.6259              1295.5619              1296.7062
 Red. masses --      1.3463                 1.1431                 1.1764
 Frc consts  --      1.2565                 1.1305                 1.1654
 IR Inten    --    106.5668                28.5687                 0.0000

                     67                     68                     69
                      A                      A                      A
 Frequencies --   1309.4132              1325.1724              1377.1506
 Red. masses --      1.5118                 1.6249                 1.3161
 Frc consts  --      1.5272                 1.6812                 1.4706
 IR Inten    --      0.0000                35.6815                38.5486

                     70                     71                     72
                      A                      A                      A
 Frequencies --   1379.5858              1387.7692              1395.3799
 Red. masses --      1.4448                 1.4515                 1.3674
 Frc consts  --      1.6201                 1.6470                 1.5686
 IR Inten    --      0.0000                20.3311                 0.0000

                     73                     74                     75
                      A                      A                      A
 Frequencies --   1403.1500              1403.2403              1419.4791
 Red. masses --      1.2994                 1.4118                 1.5572
 Frc consts  --      1.5073                 1.6379                 1.8486
 IR Inten    --      0.0000                 4.7980                 0.0000

                     76                     77                     78
                      A                      A                      A
 Frequencies --   1426.8600              1434.5522              1437.9305
 Red. masses --      1.4172                 1.4125                 1.3741
 Frc consts  --      1.7000                 1.7127                 1.6739
 IR Inten    --      9.7620                 9.0078                 0.0000

                     79                     80                     81
                      A                      A                      A
 Frequencies --   1454.8466              1456.1195              1481.2150
 Red. masses --      1.3840                 1.4091                 1.0842
 Frc consts  --      1.7260                 1.7602                 1.4015
 IR Inten    --     94.1287                 0.0000                 5.9735

                     82                     83                     84
                      A                      A                      A
 Frequencies --   1481.3839              1495.9252              1497.0789
 Red. masses --      1.0836                 1.0760                 1.0558
 Frc consts  --      1.4010                 1.4187                 1.3942
 IR Inten    --      0.0000                 0.0000                24.0807

                     85                     86                     87
                      A                      A                      A
 Frequencies --   1498.3329              1499.1301              1501.8891
 Red. masses --      1.0703                 1.0891                 1.0552
 Frc consts  --      1.4157                 1.4421                 1.4024
 IR Inten    --      0.0000                10.2034                22.5685

                     88                     89                     90
                      A                      A                      A
 Frequencies --   1501.9840              1507.5228              1508.3801
 Red. masses --      1.0557                 1.0845                 1.0863
 Frc consts  --      1.4033                 1.4521                 1.4562
 IR Inten    --      0.0017                 3.9159                 0.0000

                     91                     92                     93
                      A                      A                      A
 Frequencies --   1531.3111              1543.5659              1664.7718
 Red. masses --      1.1232                 1.1312                 1.1014
 Frc consts  --      1.5518                 1.5879                 1.7985
 IR Inten    --      0.0000               256.9695                 0.0000

                     94                     95                     96
                      A                      A                      A
 Frequencies --   1665.3012              2969.2233              2969.6448
 Red. masses --      1.1003                 1.0702                 1.0703
 Frc consts  --      1.7978                 5.5588                 5.5613
 IR Inten    --     53.4703               155.3491                 0.0074

                     97                     98                     99
                      A                      A                      A
 Frequencies --   3016.7735              3017.0700              3024.9906
 Red. masses --      1.0661                 1.0664                 1.0638
 Frc consts  --      5.7165                 5.7191                 5.7355
 IR Inten    --    128.1190                 0.0000                87.5629

                    100                    101                    102
                      A                      A                      A
 Frequencies --   3025.2193              3038.5446              3038.5984
 Red. masses --      1.0640                 1.0391                 1.0393
 Frc consts  --      5.7371                 5.6525                 5.6535
 IR Inten    --      0.0000                35.1680                 0.0016

                    103                    104                    105
                      A                      A                      A
 Frequencies --   3074.5854              3074.6155              3083.6039
 Red. masses --      1.1024                 1.1024                 1.0976
 Frc consts  --      6.1398                 6.1400                 6.1488
 IR Inten    --     13.8013                 0.0012                 0.6467

                    106                    107                    108
                      A                      A                      A
 Frequencies --   3083.6149              3092.8973              3093.2165
 Red. masses --      1.0978                 1.1016                 1.1016
 Frc consts  --      6.1505                 6.2090                 6.2102
 IR Inten    --    118.2912                 0.0005                85.6662

                    109                    110                    111
                      A                      A                      A
 Frequencies --   3130.9289              3130.9655              3131.6409
 Red. masses --      1.1044                 1.1044                 1.1040
 Frc consts  --      6.3784                 6.3786                 6.3790
 IR Inten    --      0.0009                57.9496                44.0422

                    112                    113                    114
                      A                      A                      A
 Frequencies --   3131.6561              3377.7735              3404.8342
 Red. masses --      1.1040                 1.0715                 1.0695
 Frc consts  --      6.3790                 7.2027                 7.3053
 IR Inten    --      0.0943                 0.0001               527.7854

                    115                    116                    117
                      A                      A                      A
 Frequencies --   3461.5284              3476.7325              3490.1626
 Red. masses --      1.0656                 1.0660                 1.0511
 Frc consts  --      7.5229                 7.5919                 7.5435
 IR Inten    --      0.0042              2074.0437                 0.0000

                    118                    119                    120
                      A                      A                      A
 Frequencies --   3490.2124              3578.0338              3578.1156
 Red. masses --      1.0512                 1.0939                 1.0938
 Frc consts  --      7.5450                 8.2513                 8.2508
 IR Inten    --     34.0679                 0.0008                11.2920

                           ! Non-Optimized Parameters !
 Normal termination of Gaussian 16 at Mon Apr  1 17:15:49 2024.
