 Gaussian 16, Revision B.01,
 Gaussian 16:  ES64L-G16RevB.01 20-Dec-2017

 --------------------------------------------------------------
 #T wB97XD//def2svpp Volume=tight Geom=AllCheckpoint Guess=Read
 --------------------------------------------------------------
 Structure from the checkpoint file:  "12.chk"
 -------
 Monomer
 -------
 Charge =  0 Multiplicity = 1

                         Standard orientation:
 ---------------------------------------------------------------------
 Center     Atomic      Atomic             Coordinates (Angstroms)
 Number     Number       Type             X           Y           Z
 ---------------------------------------------------------------------
      1          8           0        1.761426   -0.135516   -1.583702
      2          6           0        0.950871    0.786901   -0.893771
      3          6           0       -0.021651    0.015120    0.002406
      4          6           0       -0.925843   -0.878869   -0.870702
      5          8           0       -1.823096   -1.662459   -0.117674
      6          6           0        0.756486   -0.860604    0.982136
      7          9           0        1.589745   -0.097814    1.770448
      8          6           0       -0.880821    0.997052    0.797765
      9          9           0       -1.523096    1.874726   -0.048696
     10          1           0        2.403427    0.347474   -2.117984
     11          1           0        0.369043    1.416512   -1.594172
     12          1           0        1.559773    1.459908   -0.258529
     13          1           0       -0.294647   -1.498922   -1.532347
     14          1           0       -1.536086   -0.223454   -1.513166
     15          1           0       -1.416149   -2.512219    0.089012
     16          1           0        1.377324   -1.583120    0.425808
     17          1           0        0.063656   -1.400926    1.651150
     18          1           0       -0.259097    1.585677    1.493337
     19          1           0       -1.647979    0.443064    1.365140
 ---------------------------------------------------------------------

 SCF Done:  E(RwB97XD) =  -546.058939008     A.U. after    1 cycles

 The electronic state is 1-A.
 Alpha  occ. eigenvalues --  -24.79752 -24.79271 -19.26174 -19.25996 -10.36794
 Alpha  occ. eigenvalues --  -10.36149 -10.34517 -10.34192 -10.31457  -1.27872
 Alpha  occ. eigenvalues --   -1.27338  -1.12609  -1.12118  -0.91914  -0.78345
 Alpha  occ. eigenvalues --   -0.77808  -0.77005  -0.65434  -0.63481  -0.61127
 Alpha  occ. eigenvalues --   -0.60428  -0.59278  -0.58373  -0.56526  -0.54901
 Alpha  occ. eigenvalues --   -0.52816  -0.51431  -0.50733  -0.49545  -0.45631
 Alpha  occ. eigenvalues --   -0.44084  -0.43315  -0.41739  -0.40475  -0.39630
 Alpha  occ. eigenvalues --   -0.37020  -0.35490
 Alpha virt. eigenvalues --    0.12164   0.12621   0.16248   0.17071   0.19178
 Alpha virt. eigenvalues --    0.19476   0.21033   0.21542   0.23064   0.23823
 Alpha virt. eigenvalues --    0.25011   0.26734   0.28558   0.30080   0.30591

 Mulliken charges:
               1
     1  O   -0.489398
     2  C    0.047829
     3  C   -0.380109
     4  C    0.026952
     5  O   -0.485903
     6  C    0.117581
     7  F   -0.280513
     8  C    0.149441
     9  F   -0.281937
    10  H    0.325310
    11  H    0.111668
    12  H    0.106375
    13  H    0.125303
    14  H    0.119930
    15  H    0.322748
    16  H    0.123378
    17  H    0.102972
    18  H    0.117176
    19  H    0.121198
 Sum of Mulliken charges =   0.00000

 Dipole moment (field-independent basis, Debye):
    X=              1.6457    Y=             -1.0452    Z=             -0.9099  Tot=              2.1515
 Evaluate density.
 Using the total density.
 Monte-Carlo method of calculating molar volume:
 based on  0.001 e/bohr**3 density envelope.
 Number of points per bohr**3 =  100 CutOff= 1.00D-04
 Using the SCF density.
 There are      1662 points.  Will hold      1662 in memory.
 LenV=  1048288921 MDV=  1048576000.
 Box volume = 4592.501 fraction occupied=0.232
 Integrated density= 4.2731517703757106D+02 error= 3.5331517703757106D+02

 1\1\GINC-C013\SP\RwB97XD\def2SVPP\C5H10F2O2\PETERCHAO1\23-Sep-2022\0\\
 #T wB97XD//def2svpp Volume=tight Geom=AllCheckpoint Guess=Read\\Monome
 r\\0,1\O,0,-1.761426,-0.135516,1.583702\C,0,-0.950871,0.786901,0.89377
 1\C,0,0.021651,0.01512,-0.002406\C,0,0.925843,-0.878869,0.870702\O,0,1
 .823095,-1.66246,0.117674\C,0,-0.756486,-0.860604,-0.982136\F,0,-1.589
 745,-0.097814,-1.770448\C,0,0.880821,0.997052,-0.797765\F,0,1.523096,1
 .874726,0.048696\H,0,-2.403427,0.347475,2.117984\H,0,-0.369043,1.41651
 2,1.594172\H,0,-1.559773,1.459908,0.258529\H,0,0.294646,-1.498922,1.53

 Normal termination of Gaussian 16 at Fri Sep 23 14:22:37 2022.
