 Gaussian 16, Revision B.01,
 Gaussian 16:  ES64L-G16RevB.01 20-Dec-2017

 --------------------------------------------------------------
 #T wB97XD//def2svpp Volume=tight Geom=AllCheckpoint Guess=Read
 --------------------------------------------------------------
 Structure from the checkpoint file:  "25.chk"
 -------
 Monomer
 -------
 Charge =  0 Multiplicity = 1

                         Standard orientation:
 ---------------------------------------------------------------------
 Center     Atomic      Atomic             Coordinates (Angstroms)
 Number     Number       Type             X           Y           Z
 ---------------------------------------------------------------------
      1          6           0       -0.196727   -0.196575    1.551200
      2          6           0       -0.187392   -0.202191    0.018269
      3          6           0        0.842705   -1.230529   -0.492298
      4          8           0        2.138050   -1.011631   -0.012655
      5          6           0       -1.572500   -0.592687   -0.524514
      6          8           0       -2.606977    0.271485   -0.126108
      7          6           0        0.162757    1.195799   -0.522883
      8          8           0        1.438539    1.660697   -0.113927
      9          1           0       -0.571088   -1.159087    1.945252
     10          1           0       -0.831437    0.613999    1.954990
     11          1           0        0.823421   -0.070895    1.949015
     12          1           0        0.817306   -1.231518   -1.605011
     13          1           0        0.547757   -2.243670   -0.163710
     14          1           0        2.331635   -0.065686   -0.138047
     15          1           0       -1.791552   -1.641502   -0.233096
     16          1           0       -1.562423   -0.560419   -1.627670
     17          1           0       -2.779741    0.140906    0.815290
     18          1           0       -0.630151    1.913162   -0.241473
     19          1           0        0.200421    1.163522   -1.624986
     20          1           0        1.395905    1.933879    0.812327
 ---------------------------------------------------------------------

 SCF Done:  E(RwB97XD) =  -422.929991709     A.U. after    1 cycles

 The electronic state is 1-A.
 Alpha  occ. eigenvalues --  -19.27339 -19.26002 -19.23204 -10.34597 -10.34485
 Alpha  occ. eigenvalues --  -10.33413 -10.30997 -10.29617  -1.13477  -1.12321
 Alpha  occ. eigenvalues --   -1.09814  -0.90998  -0.79386  -0.77493  -0.75363
 Alpha  occ. eigenvalues --   -0.66212  -0.62978  -0.60882  -0.58362  -0.55387
 Alpha  occ. eigenvalues --   -0.54269  -0.53384  -0.51548  -0.49003  -0.47135
 Alpha  occ. eigenvalues --   -0.46567  -0.45401  -0.44138  -0.41716  -0.40911
 Alpha  occ. eigenvalues --   -0.36789  -0.35289  -0.34021
 Alpha virt. eigenvalues --    0.11146   0.13246   0.14611   0.16880   0.18647
 Alpha virt. eigenvalues --    0.20042   0.20203   0.20591   0.22163   0.24119
 Alpha virt. eigenvalues --    0.24692   0.25999   0.26717   0.27297   0.29788

 Mulliken charges:
               1
     1  C   -0.334086
     2  C   -0.339980
     3  C    0.093318
     4  O   -0.501346
     5  C    0.059326
     6  O   -0.483291
     7  C    0.051748
     8  O   -0.499680
     9  H    0.123185
    10  H    0.112039
    11  H    0.131409
    12  H    0.085076
    13  H    0.095589
    14  H    0.324592
    15  H    0.098494
    16  H    0.106056
    17  H    0.321603
    18  H    0.116996
    19  H    0.108620
    20  H    0.330329
 Sum of Mulliken charges =  -0.00000

 Dipole moment (field-independent basis, Debye):
    X=             -1.6057    Y=              0.6007    Z=              1.6648  Tot=              2.3897
 Evaluate density.
 Using the total density.
 Monte-Carlo method of calculating molar volume:
 based on  0.001 e/bohr**3 density envelope.
 Number of points per bohr**3 =  100 CutOff= 1.00D-04
 Using the SCF density.
 There are      1780 points.  Will hold      1780 in memory.
 LenV=  1048292804 MDV=  1048576000.
 Box volume = 5643.459 fraction occupied=0.167
 Integrated density= 4.9137158684673921D+01 error=-1.6862841315326079D+01

 Normal termination of Gaussian 16 at Fri Sep 23 14:22:04 2022.
