 Gaussian 16, Revision B.01,
 Gaussian 16:  ES64L-G16RevB.01 20-Dec-2017

 ----------------------------------------------------------------------
 #T wB97XD/def2svpp opt=tight freq int(grid=ultrafine) scf=(verytight,q
 c)
 ----------------------------------------------------------------------
 -----
 dimer
 -----
 Symbolic Z-matrix:
 Charge =  0 Multiplicity = 1

 SCF Done:  E(RwB97XD) =  -956.481506404     a.u. after    7 cycles
 SCF Done:  E(RwB97XD) =  -956.483930517     a.u. after    9 cycles
 SCF Done:  E(RwB97XD) =  -956.481516238     a.u. after   10 cycles
 SCF Done:  E(RwB97XD) =  -956.485043131     a.u. after    7 cycles
 SCF Done:  E(RwB97XD) =  -956.484364364     a.u. after    9 cycles
 SCF Done:  E(RwB97XD) =  -956.485389116     a.u. after    8 cycles
 SCF Done:  E(RwB97XD) =  -956.485140935     a.u. after    9 cycles
 SCF Done:  E(RwB97XD) =  -956.485733176     a.u. after    7 cycles
 SCF Done:  E(RwB97XD) =  -956.485730777     a.u. after    7 cycles
 SCF Done:  E(RwB97XD) =  -956.485899637     a.u. after    6 cycles
 SCF Done:  E(RwB97XD) =  -956.485981984     a.u. after    2 cycles
 SCF Done:  E(RwB97XD) =  -956.485981985     a.u. after    2 cycles
 SCF Done:  E(RwB97XD) =  -956.485981986     a.u. after    2 cycles
 SCF Done:  E(RwB97XD) =  -956.485981986     a.u. after    2 cycles
 SCF Done:  E(RwB97XD) =  -956.485981986     a.u. after    2 cycles
 SCF Done:  E(RwB97XD) =  -956.485981986     a.u. after    2 cycles
 SCF Done:  E(RwB97XD) =  -956.485981986     a.u. after    2 cycles
 SCF Done:  E(RwB97XD) =  -956.485981986     a.u. after    2 cycles
 SCF Done:  E(RwB97XD) =  -956.485981986     a.u. after    2 cycles
 Optimization completed.
    -- Stationary point found.
 Normal termination of Gaussian 16 at Tue Aug  9 18:47:45 2022.

 ---------------------------------------------------------------------
 #T Geom=AllCheck Guess=TCheck SCRF=Check GenChk RwB97XD/def2SVPP Freq
 ---------------------------------------------------------------------
 Structure from the checkpoint file:  "/scratch/user/peterchao1/peterchao1/6113295_1660079069000000511294904/Gau-138250.chk"
 -----
 dimer
 -----
 Charge =  0 Multiplicity = 1

                         Standard orientation:
 ---------------------------------------------------------------------
 Center     Atomic      Atomic             Coordinates (Angstroms)
 Number     Number       Type             X           Y           Z
 ---------------------------------------------------------------------
      1          7           0       -2.965397   -2.479389    0.417505
      2          6           0       -3.710545   -1.295001   -0.029974
      3          6           0       -2.839999   -0.026941   -0.074712
      4          6           0       -1.649756   -0.231064   -1.026671
      5          8           0       -0.792043   -1.266280   -0.597901
      6          6           0       -3.716159    1.126471   -0.609091
      7          8           0       -3.013271    2.315180   -0.805319
      8          6           0       -2.348122    0.319206    1.348140
      9          8           0       -1.714732    1.567940    1.432987
     10          1           0       -3.454147   -3.337598    0.166561
     11          1           0       -2.849174   -2.486541    1.431214
     12          1           0       -4.611411   -1.104043    0.589972
     13          1           0       -4.068445   -1.503530   -1.053381
     14          1           0       -1.053525    0.690892   -1.079260
     15          1           0       -2.037579   -0.439758   -2.045968
     16          1           0       -1.370240   -2.007626   -0.284274
     17          1           0       -4.570952    1.265995    0.091236
     18          1           0       -4.148164    0.838229   -1.585572
     19          1           0       -2.501861    2.456924    0.016464
     20          1           0       -1.674675   -0.479172    1.716463
     21          1           0       -3.225937    0.353217    2.021639
     22          1           0       -0.763489    1.476071    1.175971
     23          7           0        2.965387    2.479386   -0.417528
     24          6           0        3.710542    1.295004    0.029955
     25          6           0        2.839998    0.026942    0.074708
     26          6           0        1.649764    0.231068    1.026678
     27          8           0        0.792048    1.266288    0.597921
     28          6           0        2.348109   -0.319214   -1.348138
     29          8           0        1.714731   -1.567955   -1.432973
     30          6           0        3.716166   -1.126466    0.609084
     31          8           0        3.013280   -2.315172    0.805334
     32          1           0        2.849154    2.486529   -1.431237
     33          1           0        3.454138    3.337599   -0.166597
     34          1           0        4.068448    1.503541    1.053358
     35          1           0        4.611404    1.104043   -0.589996
     36          1           0        2.037599    0.439759    2.045972
     37          1           0        1.053532   -0.690887    1.079272
     38          1           0        1.370244    2.007628    0.284277
     39          1           0        3.225917   -0.353217   -2.021647
     40          1           0        1.674649    0.479156   -1.716456
     41          1           0        0.763487   -1.476087   -1.175958
     42          1           0        4.148187   -0.838215    1.585556
     43          1           0        4.570947   -1.265996   -0.091256
     44          1           0        2.501866   -2.456928   -0.016443
 ---------------------------------------------------------------------

 SCF Done:  E(RwB97XD) =  -956.485981986     a.u. after    1 cycles

 The electronic state is 1-A.
 Alpha  occ. eigenvalues --  -19.24757 -19.24753 -19.23341 -19.23340 -19.21947
 Alpha  occ. eigenvalues --  -19.21947 -14.45707 -14.45707 -10.33654 -10.33654
 Alpha  occ. eigenvalues --  -10.33417 -10.33417 -10.32871 -10.32870 -10.32830
 Alpha  occ. eigenvalues --  -10.32830 -10.30282 -10.30282  -1.11935  -1.10953
 Alpha  occ. eigenvalues --   -1.10639  -1.09825  -1.08154  -1.08128  -1.00495
 Alpha  occ. eigenvalues --   -1.00452  -0.89122  -0.88911  -0.76815  -0.76342
 Alpha  occ. eigenvalues --   -0.75925  -0.75892  -0.74257  -0.74233  -0.66130
 Alpha  occ. eigenvalues --   -0.65760  -0.62598  -0.62464  -0.61530  -0.61520
 Alpha  occ. eigenvalues --   -0.59715  -0.58773  -0.56710  -0.56503  -0.55266
 Alpha  occ. eigenvalues --   -0.55215  -0.53944  -0.53429  -0.52687  -0.52253
 Alpha  occ. eigenvalues --   -0.51061  -0.50388  -0.49146  -0.48396  -0.48211
 Alpha  occ. eigenvalues --   -0.48142  -0.47139  -0.47101  -0.46039  -0.45434
 Alpha  occ. eigenvalues --   -0.44319  -0.42682  -0.41510  -0.41485  -0.38645
 Alpha  occ. eigenvalues --   -0.38158  -0.36244  -0.35829  -0.34389  -0.34342
 Alpha  occ. eigenvalues --   -0.33663  -0.33480  -0.32873  -0.32780
 Alpha virt. eigenvalues --    0.11201   0.11390   0.14524   0.14771   0.15376
 Alpha virt. eigenvalues --    0.15488   0.16140   0.17230   0.18776   0.19190
 Alpha virt. eigenvalues --    0.19740   0.19927   0.20813   0.21306   0.22641

 Mulliken charges:
               1
     1  N   -0.547848
     2  C   -0.051951
     3  C   -0.394595
     4  C    0.102473
     5  O   -0.545866
     6  C    0.108711
     7  O   -0.502922
     8  C    0.067814
     9  O   -0.537013
    10  H    0.247152
    11  H    0.249825
    12  H    0.105539
    13  H    0.109446
    14  H    0.115557
    15  H    0.086763
    16  H    0.343556
    17  H    0.081255
    18  H    0.089731
    19  H    0.327951
    20  H    0.100354
    21  H    0.090588
    22  H    0.353481
    23  N   -0.547848
    24  C   -0.051951
    25  C   -0.394595
    26  C    0.102475
    27  O   -0.545867
    28  C    0.067813
    29  O   -0.537013
    30  C    0.108710
    31  O   -0.502921
    32  H    0.249825
    33  H    0.247152
    34  H    0.109446
    35  H    0.105539
    36  H    0.086763
    37  H    0.115556
    38  H    0.343556
    39  H    0.090588
    40  H    0.100354
    41  H    0.353481
    42  H    0.089731
    43  H    0.081255
    44  H    0.327951
 Sum of Mulliken charges =   0.00000

 Dipole moment (field-independent basis, Debye):
    X=             -0.0000    Y=             -0.0000    Z=             -0.0001  Tot=              0.0001
  Exact polarizability: 159.397   4.331 135.964   0.367  -2.751 124.753
 Approx polarizability: 151.376   4.012 149.542   0.933  -2.677 141.925
   1 Symmetry operations used in ECPInt.
 ECPInt:  NShTT=   12880 NPrTT=   51672 LenC2=   12078 LenP2D=   33483.
 LDataN:  DoStor=T MaxTD1= 6 Len=  172
 Calling FoFJK, ICntrl=    100127 FMM=F ISym2X=0 I1Cent= 0 IOpClX= 0 NMat=1 NMatS=1 NMatT=0.
 Full mass-weighted force constant matrix:
 Low frequencies ---   -5.0915   -2.1138    0.0004    0.0007    0.0012    5.1156
 Low frequencies ---   17.8219   35.3063   67.1096
 Diagonal vibrational polarizability:

                      1                      2                      3
                      A                      A                      A
 Frequencies --     17.8219                35.3063                67.1075
 Red. masses --      4.5344                 5.4282                 7.0321
 Frc consts  --      0.0008                 0.0040                 0.0187
 IR Inten    --      5.4660                 4.0085                 0.0000

                      4                      5                      6
                      A                      A                      A
 Frequencies --     82.0304                87.2524                93.6368
 Red. masses --      4.4813                 4.4399                 4.9804
 Frc consts  --      0.0178                 0.0199                 0.0257
 IR Inten    --      0.0000                10.8653                 0.0000

                      7                      8                      9
                      A                      A                      A
 Frequencies --    141.9251               144.1870               169.8739
 Red. masses --      3.0052                 3.0800                 3.4889
 Frc consts  --      0.0357                 0.0377                 0.0593
 IR Inten    --      0.1746                 0.0000                17.2973

                     10                     11                     12
                      A                      A                      A
 Frequencies --    175.4876               189.3382               207.9535
 Red. masses --      3.9540                 4.1475                 3.8432
 Frc consts  --      0.0717                 0.0876                 0.0979
 IR Inten    --      0.0000                 0.0000                 5.5263

                     13                     14                     15
                      A                      A                      A
 Frequencies --    220.9478               222.6325               239.5950
 Red. masses --      2.7245                 3.0127                 2.7839
 Frc consts  --      0.0784                 0.0880                 0.0942
 IR Inten    --      0.0000                14.6018                 0.0000

                     16                     17                     18
                      A                      A                      A
 Frequencies --    258.8771               293.4377               298.7118
 Red. masses --      2.7122                 4.8217                 5.2661
 Frc consts  --      0.1071                 0.2446                 0.2769
 IR Inten    --      1.2125                14.9840                 0.0000

                     19                     20                     21
                      A                      A                      A
 Frequencies --    324.5381               326.4590               330.2100
 Red. masses --      2.9573                 1.8177                 1.2714
 Frc consts  --      0.1835                 0.1141                 0.0817
 IR Inten    --      1.6653                 0.0000                49.2403

                     22                     23                     24
                      A                      A                      A
 Frequencies --    335.0725               375.0238               377.0888
 Red. masses --      1.7693                 2.1005                 2.1339
 Frc consts  --      0.1170                 0.1741                 0.1788
 IR Inten    --      0.0000                 9.7312                 0.0000

                     25                     26                     27
                      A                      A                      A
 Frequencies --    392.5438               407.6083               427.0081
 Red. masses --      3.0132                 3.1952                 4.5646
 Frc consts  --      0.2736                 0.3128                 0.4904
 IR Inten    --      0.0000                 8.4592                 0.0000

                     28                     29                     30
                      A                      A                      A
 Frequencies --    431.4012               438.5862               441.5640
 Red. masses --      4.9978                 2.9418                 2.9324
 Frc consts  --      0.5480                 0.3334                 0.3369
 IR Inten    --     11.1706                 3.8910                 0.0000

                     31                     32                     33
                      A                      A                      A
 Frequencies --    535.0134               544.9749               643.4596
 Red. masses --      3.6713                 3.7495                 2.2045
 Frc consts  --      0.6192                 0.6561                 0.5378
 IR Inten    --     13.6558                 0.0000                 0.0000

                     34                     35                     36
                      A                      A                      A
 Frequencies --    648.3188               687.2741               692.8666
 Red. masses --      2.3670                 1.1937                 1.2241
 Frc consts  --      0.5862                 0.3322                 0.3462
 IR Inten    --      9.7701               376.7403                 0.0000

                     37                     38                     39
                      A                      A                      A
 Frequencies --    777.0912               783.0763               864.3496
 Red. masses --      2.7429                 2.9154                 1.2654
 Frc consts  --      0.9759                 1.0533                 0.5570
 IR Inten    --      0.0000                19.8946                 0.0000

                     40                     41                     42
                      A                      A                      A
 Frequencies --    867.7896               892.4544               893.4655
 Red. masses --      1.2812                 1.2150                 1.3024
 Frc consts  --      0.5684                 0.5702                 0.6126
 IR Inten    --    134.0174               127.1045                 0.0003

                     43                     44                     45
                      A                      A                      A
 Frequencies --    893.7963               904.4127               924.4687
 Red. masses --      1.3267                 1.2460                 1.4295
 Frc consts  --      0.6245                 0.6005                 0.7198
 IR Inten    --    266.7118                 0.0000                 0.0000

                     46                     47                     48
                      A                      A                      A
 Frequencies --    929.3836               953.5739               956.5616
 Red. masses --      1.3431                 1.4208                 1.4201
 Frc consts  --      0.6835                 0.7612                 0.7656
 IR Inten    --     46.2200                 0.0000                46.7377

                     49                     50                     51
                      A                      A                      A
 Frequencies --    973.9470               976.3713              1032.6475
 Red. masses --      1.6220                 1.6185                 1.6849
 Frc consts  --      0.9065                 0.9091                 1.0586
 IR Inten    --     14.0290                 0.0000                 0.0001

                     52                     53                     54
                      A                      A                      A
 Frequencies --   1032.7636              1076.3891              1077.2541
 Red. masses --      1.7360                 3.5181                 3.5422
 Frc consts  --      1.0909                 2.4016                 2.4219
 IR Inten    --     50.1835                65.7176                 0.0000

                     55                     56                     57
                      A                      A                      A
 Frequencies --   1120.3869              1122.8650              1125.6262
 Red. masses --      1.9551                 1.8018                 6.1832
 Frc consts  --      1.4459                 1.3385                 4.6159
 IR Inten    --     51.8872                 0.0000                 0.0000

                     58                     59                     60
                      A                      A                      A
 Frequencies --   1141.2575              1154.3334              1158.7936
 Red. masses --      5.1110                 3.1579                 3.4716
 Frc consts  --      3.9221                 2.4792                 2.7466
 IR Inten    --     86.8914               208.4687                 0.0000

                     61                     62                     63
                      A                      A                      A
 Frequencies --   1168.6909              1169.0670              1188.1712
 Red. masses --      3.0243                 3.1258                 2.5078
 Frc consts  --      2.4337                 2.5170                 2.0859
 IR Inten    --      0.0000                40.7517                 0.0000

                     64                     65                     66
                      A                      A                      A
 Frequencies --   1189.7052              1225.7565              1229.4539
 Red. masses --      2.4525                 1.9124                 1.9733
 Frc consts  --      2.0452                 1.6929                 1.7574
 IR Inten    --    200.4105                 0.0000                17.0074

                     67                     68                     69
                      A                      A                      A
 Frequencies --   1247.1772              1247.2674              1274.2695
 Red. masses --      1.3849                 1.3697                 1.1149
 Frc consts  --      1.2692                 1.2554                 1.0667
 IR Inten    --      0.0000                 8.2055                22.3507

                     70                     71                     72
                      A                      A                      A
 Frequencies --   1276.6633              1321.0752              1323.4309
 Red. masses --      1.1055                 1.4071                 1.3612
 Frc consts  --      1.0616                 1.4468                 1.4047
 IR Inten    --      0.0000                 0.0000                11.8427

                     73                     74                     75
                      A                      A                      A
 Frequencies --   1325.3322              1327.1603              1376.1943
 Red. masses --      1.3034                 1.3216                 1.3060
 Frc consts  --      1.3489                 1.3716                 1.4573
 IR Inten    --      0.0000                23.9588                 0.0000

                     76                     77                     78
                      A                      A                      A
 Frequencies --   1377.2305              1400.7491              1401.2013
 Red. masses --      1.3117                 1.2987                 1.2981
 Frc consts  --      1.4659                 1.5013                 1.5016
 IR Inten    --      4.1008                 1.4426                 0.0000

                     79                     80                     81
                      A                      A                      A
 Frequencies --   1402.9565              1404.5786              1440.9965
 Red. masses --      1.4069                 1.4129                 1.5000
 Frc consts  --      1.6315                 1.6423                 1.8351
 IR Inten    --      9.8249                 0.0000                 0.0000

                     82                     83                     84
                      A                      A                      A
 Frequencies --   1443.1194              1452.5744              1452.7965
 Red. masses --      1.5071                 1.3859                 1.3727
 Frc consts  --      1.8492                 1.7229                 1.7071
 IR Inten    --     38.4636                22.4647                 0.0000

                     85                     86                     87
                      A                      A                      A
 Frequencies --   1491.8514              1493.9391              1497.6014
 Red. masses --      1.1608                 1.1385                 1.1252
 Frc consts  --      1.5221                 1.4970                 1.4869
 IR Inten    --     40.5387                 0.0000                14.3320

                     88                     89                     90
                      A                      A                      A
 Frequencies --   1497.8579              1506.3455              1506.6618
 Red. masses --      1.1259                 1.0867                 1.0911
 Frc consts  --      1.4883                 1.4528                 1.4593
 IR Inten    --      0.0000                45.5246                 0.0000

                     91                     92                     93
                      A                      A                      A
 Frequencies --   1512.0636              1517.3961              1518.5993
 Red. masses --      1.0921                 1.1091                 1.1628
 Frc consts  --      1.4712                 1.5046                 1.5800
 IR Inten    --      0.0000                62.3260                 0.0000

                     94                     95                     96
                      A                      A                      A
 Frequencies --   1521.0947              1522.9737              1524.9732
 Red. masses --      1.0852                 1.1255                 1.1702
 Frc consts  --      1.4794                 1.5381                 1.6034
 IR Inten    --      7.2570                 0.0000               151.7332

                     97                     98                     99
                      A                      A                      A
 Frequencies --   1562.7435              1566.8435              1669.7202
 Red. masses --      1.1432                 1.1359                 1.0885
 Frc consts  --      1.6449                 1.6430                 1.7880
 IR Inten    --    219.2389                 0.0000                90.9099

                    100                    101                    102
                      A                      A                      A
 Frequencies --   1669.8515              2954.3283              2954.4691
 Red. masses --      1.0885                 1.0710                 1.0710
 Frc consts  --      1.7883                 5.5074                 5.5081
 IR Inten    --      0.0032               139.3470                 0.0008

                    103                    104                    105
                      A                      A                      A
 Frequencies --   2993.2270              2993.2547              2995.9487
 Red. masses --      1.0699                 1.0698                 1.0736
 Frc consts  --      5.6478                 5.6475                 5.6777
 IR Inten    --      0.0088               112.4782               161.8764

                    106                    107                    108
                      A                      A                      A
 Frequencies --   2996.3060              3012.9547              3012.9823
 Red. masses --      1.0729                 1.0594                 1.0590
 Frc consts  --      5.6754                 5.6663                 5.6643
 IR Inten    --      0.0001                 0.0813               151.3156

                    109                    110                    111
                      A                      A                      A
 Frequencies --   3061.9239              3061.9568              3069.6696
 Red. masses --      1.0955                 1.0956                 1.1097
 Frc consts  --      6.0515                 6.0519                 6.1608
 IR Inten    --      0.0264                89.3943               105.2400

                    112                    113                    114
                      A                      A                      A
 Frequencies --   3069.9967              3086.2658              3086.3425
 Red. masses --      1.1096                 1.0983                 1.0983
 Frc consts  --      6.1615                 6.1638                 6.1642
 IR Inten    --      0.0004                 0.0000                63.7341

                    115                    116                    117
                      A                      A                      A
 Frequencies --   3155.3501              3156.2702              3294.2170
 Red. masses --      1.0940                 1.0943                 1.0692
 Frc consts  --      6.4173                 6.4227                 6.8363
 IR Inten    --     36.2976                 0.0000                 0.0002

                    118                    119                    120
                      A                      A                      A
 Frequencies --   3303.2078              3385.8626              3391.0953
 Red. masses --      1.0689                 1.0667                 1.0666
 Frc consts  --      6.8716                 7.2051                 7.2264
 IR Inten    --   2635.1267                 0.0000              1469.3668

                    121                    122                    123
                      A                      A                      A
 Frequencies --   3507.5876              3507.5909              3574.2701
 Red. masses --      1.0522                 1.0522                 1.0648
 Frc consts  --      7.6270                 7.6270                 8.0150
 IR Inten    --      5.2409                 0.0127                 0.0814

                    124                    125                    126
                      A                      A                      A
 Frequencies --   3574.7473              3589.4305              3589.4329
 Red. masses --      1.0648                 1.0938                 1.0938
 Frc consts  --      8.0173                 8.3028                 8.3028
 IR Inten    --    360.8343                 0.0507                20.4371

 Optimization completed.
    -- Stationary point found.
 Normal termination of Gaussian 16 at Tue Aug  9 19:09:38 2022.
