 Gaussian 16, Revision B.01,
 Gaussian 16:  ES64L-G16RevB.01 20-Dec-2017

 ----------------------------------------------------------------------
 #T wB97XD/def2svpp opt=tight freq int(grid=ultrafine) scf=(verytight,q
 c)
 ----------------------------------------------------------------------
 -------
 comment
 -------
 Symbolic Z-matrix:
 Charge =  1 Multiplicity = 2

 SCF Done:  E(UwB97XD) =  -39.9435893565     a.u. after    9 cycles
 SCF Done:  E(UwB97XD) =  -39.9734521523     a.u. after    4 cycles
 SCF Done:  E(UwB97XD) =  -39.9961454011     a.u. after    5 cycles
 SCF Done:  E(UwB97XD) =  -39.9962745979     a.u. after    3 cycles
 SCF Done:  E(UwB97XD) =  -39.9963139372     a.u. after    3 cycles
 SCF Done:  E(UwB97XD) =  -39.9963341204     a.u. after    3 cycles
 SCF Done:  E(UwB97XD) =  -39.9963565306     a.u. after    3 cycles
 SCF Done:  E(UwB97XD) =  -39.9963733461     a.u. after    3 cycles
 SCF Done:  E(UwB97XD) =  -39.9963749595     a.u. after    3 cycles
 SCF Done:  E(UwB97XD) =  -39.9963748552     a.u. after    2 cycles
 Optimization completed.
    -- Stationary point found.
 Normal termination of Gaussian 16 at Mon Jul 10 19:18:33 2023.

 ---------------------------------------------------------------------
 #T Geom=AllCheck Guess=TCheck SCRF=Check GenChk UwB97XD/def2SVPP Freq
 ---------------------------------------------------------------------
 Structure from the checkpoint file:  "0.chk"
 -------
 comment
 -------
 Charge =  1 Multiplicity = 2

                         Standard orientation:
 ---------------------------------------------------------------------
 Center     Atomic      Atomic             Coordinates (Angstroms)
 Number     Number       Type             X           Y           Z
 ---------------------------------------------------------------------
      1          6           0        0.000017   -0.000017    0.000008
      2          1           0        0.904743   -0.561541    0.383894
      3          1           0        0.561471    0.904738   -0.383973
      4          1           0       -0.904671    0.561556    0.383982
      5          1           0       -0.561643   -0.904649   -0.383949
 ---------------------------------------------------------------------

 SCF Done:  E(UwB97XD) =  -39.9963748552     a.u. after    1 cycles

 The electronic state is 2-A.
 Alpha  occ. eigenvalues --  -10.66741  -1.15799  -0.87432  -0.87431  -0.75712
 Alpha virt. eigenvalues --   -0.16946  -0.11377  -0.03424  -0.03424   0.19303
 Alpha virt. eigenvalues --    0.32240   0.32242   0.37122   0.38855   0.41988
 Alpha virt. eigenvalues --    0.47421   0.47421   1.33117   1.57337   1.64878

  Beta  occ. eigenvalues --  -10.65907  -1.11112  -0.84826  -0.84825
  Beta virt. eigenvalues --   -0.44964  -0.13850  -0.09972  -0.02396  -0.02396
  Beta virt. eigenvalues --    0.21280   0.33769   0.33772   0.39513   0.43242
  Beta virt. eigenvalues --    0.44166   0.49198   0.49199   1.34268   1.65175

 Mulliken charges and spin densities:
               1          2
     1  C   -0.470505   0.677639
     2  H    0.367620   0.080557
     3  H    0.367627   0.080601
     4  H    0.367635   0.080619
     5  H    0.367623   0.080584
 Sum of Mulliken charges =   1.00000   1.00000

 Dipole moment (field-independent basis, Debye):
    X=             -0.0003    Y=              0.0003    Z=             -0.0000  Tot=              0.0004
  Exact polarizability:  12.197   0.000  12.197  -0.000   0.000   7.226
 Approx polarizability:  11.885   0.000  11.885  -0.000   0.000   6.939
                          Isotropic Fermi Contact Couplings
        Atom                 a.u.       MegaHertz       Gauss      10(-4) cm-1
     1  C(13)              0.07959      89.47649      31.92744      29.84614
     2  H(1)               0.04177     186.71121      66.62320      62.28016
     3  H(1)               0.04179     186.80421      66.65639      62.31118
     4  H(1)               0.04180     186.84295      66.67021      62.32410
     5  H(1)               0.04178     186.77032      66.64430      62.29987
 --------------------------------------------------------

                      1                      2                      3
                      A                      A                      A
 Frequencies --    473.2057               473.3186              1080.4053
 Red. masses --      1.1671                 1.1671                 1.2581
 Frc consts  --      0.1540                 0.1541                 0.8653
 IR Inten    --    427.0073               426.9836                92.4248

                      4                      5                      6
                      A                      A                      A
 Frequencies --   1303.5772              1431.7968              2757.1045
 Red. masses --      1.0078                 1.0078                 1.0405
 Frc consts  --      1.0090                 1.2173                 4.6601
 IR Inten    --      0.0000                 0.0000               143.0522

                      7                      8                      9
                      A                      A                      A
 Frequencies --   2813.5044              2899.8833              2899.9512
 Red. masses --      1.0078                 1.1122                 1.1122
 Frc consts  --      4.7004                 5.5107                 5.5110
 IR Inten    --      0.0003               400.7022               400.7313

                           ! Non-Optimized Parameters !
 Normal termination of Gaussian 16 at Mon Jul 10 19:18:58 2023.
