 Gaussian 16, Revision B.01,
 Gaussian 16:  ES64L-G16RevB.01 20-Dec-2017

 ----------------------------------------------------------------------
 #T wB97XD/def2svpp opt=tight freq int(grid=ultrafine) scf=(verytight,q
 c) Volume=tight
 ----------------------------------------------------------------------
 -------
 Monomer
 -------
 Symbolic Z-matrix:
 Charge =  0 Multiplicity = 1

 SCF Done:  E(RwB97XD) =  -315.357040384     a.u. after    6 cycles
 SCF Done:  E(RwB97XD) =  -315.357040384     a.u. after    2 cycles
 SCF Done:  E(RwB97XD) =  -315.357040384     a.u. after    2 cycles
 Optimization completed.
    -- Stationary point found.
 Normal termination of Gaussian 16 at Mon Feb  6 10:23:56 2023.

 ---------------------------------------------------------------------
 #T Geom=AllCheck Guess=TCheck SCRF=Check GenChk RwB97XD/def2SVPP Freq
 ---------------------------------------------------------------------
 Structure from the checkpoint file:  "16.chk"
 -------
 Monomer
 -------
 Charge =  0 Multiplicity = 1

                         Standard orientation:
 ---------------------------------------------------------------------
 Center     Atomic      Atomic             Coordinates (Angstroms)
 Number     Number       Type             X           Y           Z
 ---------------------------------------------------------------------
      1          6           0        2.609488   -0.276586   -0.196778
      2          6           0        1.242288   -0.456385   -0.854348
      3          6           0       -0.000004   -0.349580    0.064647
      4          6           0       -0.000010   -1.515643    1.066247
      5          6           0        0.000004    0.971434    0.866581
      6          6           0        0.000023    2.260270    0.047436
      7          6           0       -1.242296   -0.456372   -0.854348
      8          6           0       -2.609494   -0.276562   -0.196778
      9          1           0        3.412217   -0.434640   -0.937396
     10          1           0        2.775218   -0.994870    0.624283
     11          1           0        2.739480    0.739461    0.214078
     12          1           0        1.209957   -1.445741   -1.348616
     13          1           0        1.146051    0.282889   -1.670691
     14          1           0        0.886251   -1.485047    1.723219
     15          1           0       -0.000015   -2.488915    0.542644
     16          1           0       -0.886271   -1.485037    1.723219
     17          1           0        0.876983    0.973147    1.539246
     18          1           0       -0.876984    0.973164    1.539234
     19          1           0        0.890809    2.337192   -0.599945
     20          1           0        0.000029    3.140519    0.713069
     21          1           0       -0.890754    2.337212   -0.599954
     22          1           0       -1.209974   -1.445727   -1.348618
     23          1           0       -1.146052    0.282903   -1.670689
     24          1           0       -2.775231   -0.994848    0.624280
     25          1           0       -3.412225   -0.434605   -0.937396
     26          1           0       -2.739477    0.739484    0.214082
 ---------------------------------------------------------------------

 SCF Done:  E(RwB97XD) =  -315.357040384     a.u. after    1 cycles

 The electronic state is 1-A.
 Alpha  occ. eigenvalues --  -10.30038 -10.28280 -10.28280 -10.28251 -10.27848
 Alpha  occ. eigenvalues --  -10.27811 -10.27810 -10.27497  -0.92327  -0.83946
 Alpha  occ. eigenvalues --   -0.83201  -0.79842  -0.73904  -0.70652  -0.67969
 Alpha  occ. eigenvalues --   -0.60257  -0.56081  -0.55551  -0.53424  -0.50557
 Alpha  occ. eigenvalues --   -0.48848  -0.48449  -0.48105  -0.47116  -0.45320
 Alpha  occ. eigenvalues --   -0.45113  -0.43153  -0.42487  -0.42153  -0.40834
 Alpha  occ. eigenvalues --   -0.38641  -0.38070  -0.37703
 Alpha virt. eigenvalues --    0.12524   0.15718   0.16240   0.16450   0.18749
 Alpha virt. eigenvalues --    0.19232   0.19911   0.20067   0.20552   0.22090
 Alpha virt. eigenvalues --    0.22725   0.23719   0.24043   0.26480   0.26543

 Mulliken charges:
               1
     1  C   -0.315078
     2  C   -0.180838
     3  C   -0.230149
     4  C   -0.275964
     5  C   -0.194060
     6  C   -0.323254
     7  C   -0.180837
     8  C   -0.315078
     9  H    0.118720
    10  H    0.117412
    11  H    0.120336
    12  H    0.095600
    13  H    0.101748
    14  H    0.116399
    15  H    0.110073
    16  H    0.116399
    17  H    0.102721
    18  H    0.102721
    19  H    0.119929
    20  H    0.119457
    21  H    0.119929
    22  H    0.095600
    23  H    0.101748
    24  H    0.117412
    25  H    0.118720
    26  H    0.120336
 Sum of Mulliken charges =  -0.00000

 Dipole moment (field-independent basis, Debye):
    X=             -0.0000    Y=              0.0482    Z=             -0.0264  Tot=              0.0549
  Exact polarizability:  92.113  -0.000  85.396   0.000  -0.013  79.264
 Approx polarizability:  89.402   0.000  88.953   0.000   0.131  88.551
   1 Symmetry operations used in ECPInt.
 ECPInt:  NShTT=    3570 NPrTT=   14354 LenC2=    3557 LenP2D=   11480.
 LDataN:  DoStor=T MaxTD1= 6 Len=  172
 Calling FoFJK, ICntrl=    100127 FMM=F ISym2X=0 I1Cent= 0 IOpClX= 0 NMat=1 NMatS=1 NMatT=0.
 Full mass-weighted force constant matrix:
 Low frequencies ---   -8.4097   -0.0006   -0.0006    0.0005    7.0640   10.5711
 Low frequencies ---   88.5472  113.0661  129.5271
 Diagonal vibrational polarizability:

                      1                      2                      3
                      A                      A                      A
 Frequencies --     88.5001               113.0380               129.5117
 Red. masses --      1.5257                 2.0798                 1.8075
 Frc consts  --      0.0070                 0.0157                 0.0179
 IR Inten    --      0.0041                 0.0037                 0.0041

                      4                      5                      6
                      A                      A                      A
 Frequencies --    206.8724               232.7568               238.1747
 Red. masses --      2.6848                 1.0925                 1.1967
 Frc consts  --      0.0677                 0.0349                 0.0400
 IR Inten    --      0.0217                 0.0821                 0.0327

                      7                      8                      9
                      A                      A                      A
 Frequencies --    244.5497               310.4986               312.5995
 Red. masses --      1.0720                 1.4550                 2.2121
 Frc consts  --      0.0378                 0.0827                 0.1274
 IR Inten    --      0.0170                 0.0119                 0.1766

                     10                     11                     12
                      A                      A                      A
 Frequencies --    344.6924               358.5790               398.1495
 Red. masses --      1.9277                 2.0960                 2.4980
 Frc consts  --      0.1349                 0.1588                 0.2333
 IR Inten    --      0.0058                 0.0025                 0.0538

                     13                     14                     15
                      A                      A                      A
 Frequencies --    418.8867               500.1716               522.6378
 Red. masses --      3.0904                 2.2465                 2.1024
 Frc consts  --      0.3195                 0.3311                 0.3384
 IR Inten    --      0.2069                 0.2566                 0.9612

                     16                     17                     18
                      A                      A                      A
 Frequencies --    702.6609               766.3468               805.3356
 Red. masses --      2.7110                 1.1938                 1.2565
 Frc consts  --      0.7886                 0.4131                 0.4802
 IR Inten    --      0.2239                 2.3479                 6.8740

                     19                     20                     21
                      A                      A                      A
 Frequencies --    810.3763               896.0899               912.7468
 Red. masses --      1.2107                 1.7620                 1.5874
 Frc consts  --      0.4684                 0.8336                 0.7792
 IR Inten    --      2.1217                 0.3988                 3.1671

                     22                     23                     24
                      A                      A                      A
 Frequencies --    995.3900              1023.7249              1027.7526
 Red. masses --      1.7388                 1.2649                 1.4860
 Frc consts  --      1.0151                 0.7810                 0.9248
 IR Inten    --      2.0880                 6.9469                 5.3899

                     25                     26                     27
                      A                      A                      A
 Frequencies --   1051.6774              1052.1105              1071.3232
 Red. masses --      1.4670                 1.6660                 1.7642
 Frc consts  --      0.9559                 1.0865                 1.1930
 IR Inten    --      0.4997                 0.3179                 1.9329

                     28                     29                     30
                      A                      A                      A
 Frequencies --   1092.4761              1125.1186              1131.0664
 Red. masses --      2.6190                 2.1942                 1.4798
 Frc consts  --      1.8417                 1.6365                 1.1154
 IR Inten    --      0.2175                 0.4901                 0.1399

                     31                     32                     33
                      A                      A                      A
 Frequencies --   1220.5056              1234.0874              1284.7425
 Red. masses --      1.9652                 2.1203                 3.5360
 Frc consts  --      1.7248                 1.9026                 3.4387
 IR Inten    --      5.6283                 1.2986                 0.0781

                     34                     35                     36
                      A                      A                      A
 Frequencies --   1301.9571              1319.4597              1349.0648
 Red. masses --      1.1463                 1.1611                 1.2471
 Frc consts  --      1.1448                 1.1910                 1.3373
 IR Inten    --      0.1261                 3.2376                 1.0519

                     37                     38                     39
                      A                      A                      A
 Frequencies --   1382.2050              1395.8201              1408.4012
 Red. masses --      1.2801                 1.5345                 1.4506
 Frc consts  --      1.4409                 1.7614                 1.6953
 IR Inten    --      0.0232                 0.7397                 1.6209

                     40                     41                     42
                      A                      A                      A
 Frequencies --   1423.3364              1427.2698              1429.7541
 Red. masses --      1.2670                 1.3288                 1.3461
 Frc consts  --      1.5123                 1.5949                 1.6213
 IR Inten    --      7.3082                 7.6867                 1.4437

                     43                     44                     45
                      A                      A                      A
 Frequencies --   1434.3531              1475.3719              1477.5552
 Red. masses --      1.3900                 1.0750                 1.0662
 Frc consts  --      1.6849                 1.3787                 1.3715
 IR Inten    --      3.6315                 0.0167                 4.8395

                     46                     47                     48
                      A                      A                      A
 Frequencies --   1492.2978              1493.6334              1494.8073
 Red. masses --      1.0515                 1.0588                 1.0819
 Frc consts  --      1.3797                 1.3918                 1.4243
 IR Inten    --     16.0087                 9.9351                 3.8263

                     49                     50                     51
                      A                      A                      A
 Frequencies --   1498.1666              1500.8654              1507.8868
 Red. masses --      1.0447                 1.0476                 1.0573
 Frc consts  --      1.3815                 1.3903                 1.4164
 IR Inten    --      1.8883                 0.2662                10.2662

                     52                     53                     54
                      A                      A                      A
 Frequencies --   1508.7164              1509.4605              1516.0234
 Red. masses --      1.0492                 1.0584                 1.0699
 Frc consts  --      1.4071                 1.4208                 1.4487
 IR Inten    --      6.1075                 4.2266                 9.7180

                     55                     56                     57
                      A                      A                      A
 Frequencies --   3027.4756              3027.6728              3032.0679
 Red. masses --      1.0630                 1.0411                 1.0527
 Frc consts  --      5.7407                 5.6226                 5.7022
 IR Inten    --      4.2641                21.0058                45.8225

                     58                     59                     60
                      A                      A                      A
 Frequencies --   3036.5265              3037.2359              3037.4076
 Red. masses --      1.0499                 1.0416                 1.0391
 Frc consts  --      5.7038                 5.6611                 5.6485
 IR Inten    --     30.5869                11.8757                38.0403

                     61                     62                     63
                      A                      A                      A
 Frequencies --   3043.5578              3073.9090              3080.8133
 Red. masses --      1.0570                 1.1038                 1.1022
 Frc consts  --      5.7689                 6.1452                 6.1638
 IR Inten    --     11.6146                 0.0318                40.4176

                     64                     65                     66
                      A                      A                      A
 Frequencies --   3081.9641              3117.0991              3121.3924
 Red. masses --      1.1030                 1.1041                 1.1040
 Frc consts  --      6.1726                 6.3204                 6.3375
 IR Inten    --     20.6680                17.1143                26.5177

                     67                     68                     69
                      A                      A                      A
 Frequencies --   3124.1951              3125.5280              3126.0038
 Red. masses --      1.1040                 1.1040                 1.1034
 Frc consts  --      6.3486                 6.3543                 6.3529
 IR Inten    --     15.4236                10.9267                63.5996

                     70                     71                     72
                      A                      A                      A
 Frequencies --   3129.5968              3133.4097              3133.9036
 Red. masses --      1.1039                 1.1041                 1.1039
 Frc consts  --      6.3701                 6.3872                 6.3879
 IR Inten    --     34.9593                55.4731                 0.2215

 Optimization completed.
    -- Stationary point found.
 Normal termination of Gaussian 16 at Mon Feb  6 10:27:04 2023.
