 Gaussian 16, Revision B.01,
 Gaussian 16:  ES64L-G16RevB.01 20-Dec-2017

 --------------------------------------------------------------
 #T wB97XD//def2svpp Volume=tight Geom=AllCheckpoint Guess=Read
 --------------------------------------------------------------
 Structure from the checkpoint file:  "33.chk"
 -------
 Monomer
 -------
 Charge =  0 Multiplicity = 1

                         Standard orientation:
 ---------------------------------------------------------------------
 Center     Atomic      Atomic             Coordinates (Angstroms)
 Number     Number       Type             X           Y           Z
 ---------------------------------------------------------------------
      1          6           0       -2.247896    0.380954   -0.034361
      2          6           0       -1.128008   -0.408097   -0.704909
      3          6           0        0.245372   -0.392935   -0.003918
      4          6           0        0.142056   -0.856653    1.453578
      5          6           0        1.217997   -1.295330   -0.768949
      6         16           0        0.932730    1.325848    0.073618
      7          1           0       -2.525656   -0.050097    0.942592
      8          1           0       -3.152097    0.373635   -0.666413
      9          1           0       -1.948232    1.430132    0.126892
     10          1           0       -0.989009   -0.040088   -1.738593
     11          1           0       -1.435249   -1.467926   -0.800272
     12          1           0       -0.322287   -1.858679    1.492148
     13          1           0       -0.471478   -0.172279    2.062966
     14          1           0        1.140950   -0.923364    1.917668
     15          1           0        0.853481   -2.339503   -0.764258
     16          1           0        2.221349   -1.274158   -0.312269
     17          1           0        1.313551   -0.977520   -1.822247
     18          1           0        1.013878    1.518637   -1.264750
 ---------------------------------------------------------------------

 SCF Done:  E(RwB97XD) =  -595.606652480     A.U. after    1 cycles

 The electronic state is 1-A.
 Alpha  occ. eigenvalues --  -88.99135 -10.34016 -10.29621 -10.29068 -10.28891
 Alpha  occ. eigenvalues --  -10.27952  -8.04439  -5.99905  -5.99521  -5.98827
 Alpha  occ. eigenvalues --   -0.93321  -0.83442  -0.79659  -0.78361  -0.71594
 Alpha  occ. eigenvalues --   -0.62529  -0.55472  -0.54640  -0.53149  -0.50761
 Alpha  occ. eigenvalues --   -0.48746  -0.46963  -0.45026  -0.44396  -0.43434
 Alpha  occ. eigenvalues --   -0.41648  -0.40992  -0.38224  -0.30993
 Alpha virt. eigenvalues --    0.10021   0.13406   0.15235   0.17184   0.17965
 Alpha virt. eigenvalues --    0.19794   0.19904   0.21448   0.22583   0.22773
 Alpha virt. eigenvalues --    0.24403   0.24939   0.25758   0.28505   0.29594

 Mulliken charges:
               1
     1  C   -0.312038
     2  C   -0.147738
     3  C   -0.357337
     4  C   -0.269177
     5  C   -0.223893
     6  S   -0.151941
     7  H    0.118071
     8  H    0.120666
     9  H    0.127628
    10  H    0.097865
    11  H    0.101979
    12  H    0.122585
    13  H    0.139979
    14  H    0.132326
    15  H    0.113983
    16  H    0.129555
    17  H    0.113295
    18  H    0.144193
 Sum of Mulliken charges =  -0.00000

 Dipole moment (field-independent basis, Debye):
    X=             -0.5400    Y=             -1.2946    Z=             -0.8071  Tot=              1.6183
 Evaluate density.
 Using the total density.
 Monte-Carlo method of calculating molar volume:
 based on  0.001 e/bohr**3 density envelope.
 Number of points per bohr**3 =  100 CutOff= 1.00D-04
 Using the SCF density.
 There are      1955 points.  Will hold      1955 in memory.
 LenV=  1048324141 MDV=  1048576000.
 Box volume = 7478.532 fraction occupied=0.146
 Integrated density= 4.1344668835922761D+01 error=-1.6655331164077239D+01

 Normal termination of Gaussian 16 at Thu Feb  2 13:05:15 2023.
