 Gaussian 16, Revision B.01,
 Gaussian 16:  ES64L-G16RevB.01 20-Dec-2017

 --------------------------------------------------------------
 #T wB97XD//def2svpp Volume=tight Geom=AllCheckpoint Guess=Read
 --------------------------------------------------------------
 Structure from the checkpoint file:  "1.chk"
 -------
 Monomer
 -------
 Charge =  0 Multiplicity = 1

                         Standard orientation:
 ---------------------------------------------------------------------
 Center     Atomic      Atomic             Coordinates (Angstroms)
 Number     Number       Type             X           Y           Z
 ---------------------------------------------------------------------
      1          6           0        0.000450    0.000004    1.765424
      2          6           0       -0.000077   -0.000001    0.249093
      3         17           0       -1.681472   -0.011638   -0.362246
      4         17           0        0.830532    1.461784   -0.362580
      5         17           0        0.850691   -1.450149   -0.362579
      6          1           0       -0.524633    0.895421    2.133218
      7          1           0        1.038745    0.007235    2.132353
      8          1           0       -0.512114   -0.902635    2.133222
 ---------------------------------------------------------------------

 SCF Done:  E(RwB97XD) =  -1458.08146673     A.U. after    1 cycles

 The electronic state is 1-A.
 Alpha  occ. eigenvalues -- -101.69101-101.69100-101.69095 -10.47834 -10.32486
 Alpha  occ. eigenvalues --   -9.59957  -9.59955  -9.59951  -7.35387  -7.35386
 Alpha  occ. eigenvalues --   -7.35384  -7.34324  -7.34322  -7.34321  -7.34310
 Alpha  occ. eigenvalues --   -7.34309  -7.34309  -1.04636  -0.93231  -0.93230
 Alpha  occ. eigenvalues --   -0.84876  -0.68791  -0.58196  -0.58195  -0.55700
 Alpha  occ. eigenvalues --   -0.49593  -0.49592  -0.43117  -0.43116  -0.40617
 Alpha  occ. eigenvalues --   -0.39592  -0.39591  -0.38299
 Alpha virt. eigenvalues --    0.06229   0.09397   0.09398   0.15578   0.20477
 Alpha virt. eigenvalues --    0.20478   0.23253   0.47586   0.47589   0.48235
 Alpha virt. eigenvalues --    0.49221   0.53680   0.53683   0.64238   0.64242

 Mulliken charges:
               1
     1  C   -0.216840
     2  C   -0.096846
     3  Cl  -0.049680
     4  Cl  -0.049701
     5  Cl  -0.049703
     6  H    0.154259
     7  H    0.154251
     8  H    0.154260
 Sum of Mulliken charges =  -0.00000

 Dipole moment (field-independent basis, Debye):
    X=              0.0002    Y=              0.0000    Z=              1.8030  Tot=              1.8030
 Evaluate density.
 Using the total density.
 Monte-Carlo method of calculating molar volume:
 based on  0.001 e/bohr**3 density envelope.
 Number of points per bohr**3 =  100 CutOff= 1.00D-04
 Using the SCF density.
 There are      2046 points.  Will hold      2046 in memory.
 LenV=  1048369251 MDV=  1048576000.
 Box volume = 8570.654 fraction occupied=0.102
 Integrated density= 3.8784045155207465D+01 error=-2.7215954844792535D+01

 Normal termination of Gaussian 16 at Fri Sep 23 14:10:15 2022.
