 Gaussian 16, Revision B.01,
 Gaussian 16:  ES64L-G16RevB.01 20-Dec-2017

 ----------------------------------------------------------------------
 #T wB97XD/def2svpp opt=tight freq int(grid=ultrafine) scf=(verytight,q
 c)
 ----------------------------------------------------------------------
 -----
 dimer
 -----
 Symbolic Z-matrix:
 Charge =  0 Multiplicity = 1

 SCF Done:  E(RwB97XD) =  -845.906706846     a.u. after    7 cycles
 SCF Done:  E(RwB97XD) =  -845.908729363     a.u. after    9 cycles
 SCF Done:  E(RwB97XD) =  -845.904695863     a.u. after   11 cycles
 SCF Done:  E(RwB97XD) =  -845.908127193     a.u. after   10 cycles
 SCF Done:  E(RwB97XD) =  -845.909866599     a.u. after    2 cycles
 SCF Done:  E(RwB97XD) =  -845.910895514     a.u. after    6 cycles
 SCF Done:  E(RwB97XD) =  -845.911433051     a.u. after    7 cycles
 SCF Done:  E(RwB97XD) =  -845.911105534     a.u. after    9 cycles
 SCF Done:  E(RwB97XD) =  -845.911076201     a.u. after    8 cycles
 SCF Done:  E(RwB97XD) =  -845.910523019     a.u. after    7 cycles
 SCF Done:  E(RwB97XD) =  -845.912097843     a.u. after    2 cycles
 SCF Done:  E(RwB97XD) =  -845.912097887     a.u. after    2 cycles
 SCF Done:  E(RwB97XD) =  -845.912097915     a.u. after    2 cycles
 SCF Done:  E(RwB97XD) =  -845.912097934     a.u. after    2 cycles
 SCF Done:  E(RwB97XD) =  -845.912097940     a.u. after    2 cycles
 SCF Done:  E(RwB97XD) =  -845.912097942     a.u. after    2 cycles
 SCF Done:  E(RwB97XD) =  -845.912097942     a.u. after    2 cycles
 SCF Done:  E(RwB97XD) =  -845.912097943     a.u. after    2 cycles
 SCF Done:  E(RwB97XD) =  -845.912097943     a.u. after    2 cycles
 Optimization completed.
    -- Stationary point found.
 Normal termination of Gaussian 16 at Thu Sep  1 01:02:13 2022.

 ---------------------------------------------------------------------
 #T Geom=AllCheck Guess=TCheck SCRF=Check GenChk RwB97XD/def2SVPP Freq
 ---------------------------------------------------------------------
 Structure from the checkpoint file:  "/scratch/user/peterchao1/peterchao1/6215057_1662005229000000514088656/Gau-112012.chk"
 -----
 dimer
 -----
 Charge =  0 Multiplicity = 1

                         Standard orientation:
 ---------------------------------------------------------------------
 Center     Atomic      Atomic             Coordinates (Angstroms)
 Number     Number       Type             X           Y           Z
 ---------------------------------------------------------------------
      1          6           0        4.200479   -1.352910    0.305641
      2          6           0        3.042018   -0.379045    0.070840
      3          6           0        2.016715   -1.069300   -0.846385
      4          8           0        0.941236   -0.243592   -1.226734
      5          6           0        2.437744   -0.003724    1.443453
      6          8           0        1.553488    1.088697    1.414683
      7          6           0        3.580024    0.894062   -0.614919
      8          8           0        2.560702    1.832502   -0.898175
      9          1           0        4.663101   -1.663911   -0.647438
     10          1           0        3.854227   -2.264379    0.824931
     11          1           0        4.987802   -0.891849    0.927288
     12          1           0        1.586744   -1.946529   -0.330048
     13          1           0        2.543153   -1.445501   -1.748465
     14          1           0        1.298857    0.658211   -1.382252
     15          1           0        3.270065    0.269994    2.118712
     16          1           0        1.945728   -0.895263    1.881526
     17          1           0        0.624999    0.760707    1.335314
     18          1           0        4.053868    0.632791   -1.577598
     19          1           0        4.362734    1.352355    0.024179
     20          1           0        2.104709    1.976610   -0.037316
     21          6           0       -4.140350    1.400480   -0.380670
     22          6           0       -3.023355    0.391893   -0.096777
     23          6           0       -1.980529    1.075523    0.806340
     24          8           0       -0.954187    0.219314    1.250102
     25          6           0       -3.618020   -0.833527    0.627786
     26          8           0       -2.640230   -1.802472    0.951611
     27          6           0       -2.420915   -0.057189   -1.447284
     28          8           0       -1.554243   -1.160540   -1.361229
     29          1           0       -3.751008    2.283830   -0.917690
     30          1           0       -4.608608    1.754709    0.554368
     31          1           0       -4.932610    0.951293   -1.004756
     32          1           0       -2.503915    1.521714    1.677719
     33          1           0       -1.498428    1.903944    0.256234
     34          1           0       -1.353343   -0.660470    1.429852
     35          1           0       -4.414371   -1.280987   -0.002076
     36          1           0       -4.087645   -0.520497    1.577047
     37          1           0       -2.171738   -1.984963    0.104848
     38          1           0       -1.911576    0.804125   -1.924473
     39          1           0       -3.254442   -0.348941   -2.113399
     40          1           0       -0.625287   -0.835848   -1.276719
 ---------------------------------------------------------------------

 SCF Done:  E(RwB97XD) =  -845.912097943     a.u. after    1 cycles

 The electronic state is 1-A.
 Alpha  occ. eigenvalues --  -19.25802 -19.25778 -19.25208 -19.25189 -19.24304
 Alpha  occ. eigenvalues --  -19.24284 -10.34537 -10.34523 -10.34302 -10.34283
 Alpha  occ. eigenvalues --  -10.34090 -10.34088 -10.31320 -10.31297 -10.29799
 Alpha  occ. eigenvalues --  -10.29789  -1.13980  -1.13308  -1.11487  -1.10589
 Alpha  occ. eigenvalues --   -1.09763  -1.09428  -0.91555  -0.91370  -0.77413
 Alpha  occ. eigenvalues --   -0.77391  -0.77152  -0.76893  -0.76544  -0.76521
 Alpha  occ. eigenvalues --   -0.67536  -0.66882  -0.63296  -0.62929  -0.62585
 Alpha  occ. eigenvalues --   -0.60263  -0.57452  -0.57299  -0.55608  -0.54735
 Alpha  occ. eigenvalues --   -0.53701  -0.53668  -0.53024  -0.51856  -0.50971
 Alpha  occ. eigenvalues --   -0.49988  -0.49783  -0.49583  -0.49133  -0.48897
 Alpha  occ. eigenvalues --   -0.48007  -0.47939  -0.46093  -0.45913  -0.44607
 Alpha  occ. eigenvalues --   -0.43812  -0.43133  -0.41302  -0.39995  -0.39747
 Alpha  occ. eigenvalues --   -0.37700  -0.36887  -0.35070  -0.34829  -0.34022
 Alpha  occ. eigenvalues --   -0.33748
 Alpha virt. eigenvalues --    0.11985   0.12194   0.13793   0.15661   0.16474
 Alpha virt. eigenvalues --    0.16725   0.16980   0.17701   0.18691   0.20137
 Alpha virt. eigenvalues --    0.20271   0.20421   0.21150   0.22086   0.22716

 Mulliken charges:
               1
     1  C   -0.282164
     2  C   -0.378933
     3  C    0.110629
     4  O   -0.547681
     5  C    0.081991
     6  O   -0.544723
     7  C    0.069903
     8  O   -0.524217
     9  H    0.125055
    10  H    0.125495
    11  H    0.126242
    12  H    0.099495
    13  H    0.094212
    14  H    0.338714
    15  H    0.098528
    16  H    0.098069
    17  H    0.358257
    18  H    0.106713
    19  H    0.101492
    20  H    0.342402
    21  C   -0.282150
    22  C   -0.377760
    23  C    0.110405
    24  O   -0.547459
    25  C    0.069686
    26  O   -0.524066
    27  C    0.079410
    28  O   -0.543726
    29  H    0.125647
    30  H    0.125257
    31  H    0.126175
    32  H    0.094573
    33  H    0.098886
    34  H    0.339029
    35  H    0.101188
    36  H    0.107109
    37  H    0.342604
    38  H    0.098507
    39  H    0.098723
    40  H    0.358483
 Sum of Mulliken charges =  -0.00000

 Dipole moment (field-independent basis, Debye):
    X=              0.0489    Y=              0.0247    Z=             -0.0866  Tot=              0.1024
  Exact polarizability: 148.324  -4.274 119.019   1.512  -1.059 114.834
 Approx polarizability: 139.183  -2.258 133.897   0.484  -2.252 126.155
   1 Symmetry operations used in ECPInt.
 ECPInt:  NShTT=   10440 NPrTT=   41896 LenC2=    9862 LenP2D=   27715.
 LDataN:  DoStor=T MaxTD1= 6 Len=  172
 Calling FoFJK, ICntrl=    100127 FMM=F ISym2X=0 I1Cent= 0 IOpClX= 0 NMat=1 NMatS=1 NMatT=0.
 Full mass-weighted force constant matrix:
 Low frequencies ---   -9.5202   -0.0011   -0.0010   -0.0006    0.3825    5.5759
 Low frequencies ---   12.9310   26.3269   54.6880
 Diagonal vibrational polarizability:

                      1                      2                      3
                      A                      A                      A
 Frequencies --     12.1678                26.3086                54.6847
 Red. masses --      3.9614                 3.9107                 3.5995
 Frc consts  --      0.0003                 0.0016                 0.0063
 IR Inten    --      1.2583                 2.8518                 0.0064

                      4                      5                      6
                      A                      A                      A
 Frequencies --     76.3758                99.0470               101.3382
 Red. masses --      5.5876                 3.1936                 5.1616
 Frc consts  --      0.0192                 0.0185                 0.0312
 IR Inten    --      0.0194                11.0449                 0.0786

                      7                      8                      9
                      A                      A                      A
 Frequencies --    132.0438               140.6813               206.9894
 Red. masses --      4.6188                 3.0362                 2.0635
 Frc consts  --      0.0474                 0.0354                 0.0521
 IR Inten    --      5.7799                 0.0527                12.7284

                     10                     11                     12
                      A                      A                      A
 Frequencies --    221.7593               223.8818               226.7936
 Red. masses --      1.3385                 2.9501                 1.5070
 Frc consts  --      0.0388                 0.0871                 0.0457
 IR Inten    --      0.0994                 0.0251                 7.8551

                     13                     14                     15
                      A                      A                      A
 Frequencies --    243.5086               260.1180               278.9379
 Red. masses --      2.9794                 2.2531                 2.4158
 Frc consts  --      0.1041                 0.0898                 0.1107
 IR Inten    --      0.0052                 2.2375                 6.5401

                     16                     17                     18
                      A                      A                      A
 Frequencies --    286.3500               299.3713               310.2195
 Red. masses --      2.4993                 3.2789                 4.9800
 Frc consts  --      0.1207                 0.1731                 0.2824
 IR Inten    --      0.0210                 0.1036                18.4462

                     19                     20                     21
                      A                      A                      A
 Frequencies --    327.3837               356.5923               380.2501
 Red. masses --      4.5174                 5.3189                 2.9059
 Frc consts  --      0.2853                 0.3985                 0.2476
 IR Inten    --      1.0512                 0.0547                 0.3816

                     22                     23                     24
                      A                      A                      A
 Frequencies --    382.6747               395.4263               414.9188
 Red. masses --      2.8966                 2.5088                 2.5602
 Frc consts  --      0.2499                 0.2311                 0.2597
 IR Inten    --      0.0006                 0.0154                 3.4938

                     25                     26                     27
                      A                      A                      A
 Frequencies --    454.6286               457.0370               473.5066
 Red. masses --      2.8064                 3.0186                 3.1394
 Frc consts  --      0.3418                 0.3715                 0.4147
 IR Inten    --      6.0416                 0.2326                 0.0240

                     28                     29                     30
                      A                      A                      A
 Frequencies --    489.4788               599.0079               604.7830
 Red. masses --      3.6201                 3.7441                 2.5797
 Frc consts  --      0.5110                 0.7915                 0.5559
 IR Inten    --     10.4661                25.6866                 1.4796

                     31                     32                     33
                      A                      A                      A
 Frequencies --    610.0236               617.7983               695.8821
 Red. masses --      1.3290                 1.1255                 1.0546
 Frc consts  --      0.2914                 0.2531                 0.3009
 IR Inten    --      1.1362               411.3795               298.0282

                     34                     35                     36
                      A                      A                      A
 Frequencies --    714.7820               797.3210               798.4885
 Red. masses --      1.0467                 3.1128                 3.1837
 Frc consts  --      0.3151                 1.1659                 1.1960
 IR Inten    --     25.9871                 1.3155                22.6074

                     37                     38                     39
                      A                      A                      A
 Frequencies --    920.1587               922.6056               930.6229
 Red. masses --      1.4711                 1.4600                 1.8063
 Frc consts  --      0.7339                 0.7322                 0.9217
 IR Inten    --     20.8000                74.7554                40.1836

                     40                     41                     42
                      A                      A                      A
 Frequencies --    930.9402               936.8140               940.6941
 Red. masses --      1.7802                 1.5591                 1.5968
 Frc consts  --      0.9090                 0.8062                 0.8325
 IR Inten    --      0.4345                 0.2028                55.7863

                     43                     44                     45
                      A                      A                      A
 Frequencies --    961.0586               964.2363              1024.7072
 Red. masses --      1.2526                 1.2428                 1.4357
 Frc consts  --      0.6816                 0.6808                 0.8882
 IR Inten    --      1.0840               111.2195                 0.3727

                     46                     47                     48
                      A                      A                      A
 Frequencies --   1025.7080              1031.9500              1035.0682
 Red. masses --      1.4587                 1.5015                 1.5404
 Frc consts  --      0.9042                 0.9421                 0.9723
 IR Inten    --      2.0754                 2.3234                 0.0058

                     49                     50                     51
                      A                      A                      A
 Frequencies --   1116.9846              1117.4148              1133.4973
 Red. masses --      5.5281                 5.5159                 6.0759
 Frc consts  --      4.0637                 4.0579                 4.5994
 IR Inten    --     12.2358                25.0763               248.6114

                     52                     53                     54
                      A                      A                      A
 Frequencies --   1136.2427              1141.2880              1146.9366
 Red. masses --      5.3175                 6.1113                 5.3043
 Frc consts  --      4.0448                 4.6900                 4.1111
 IR Inten    --      3.0920                 0.2828                22.8016

                     55                     56                     57
                      A                      A                      A
 Frequencies --   1191.0595              1194.7263              1220.5905
 Red. masses --      2.5520                 2.7161                 1.4260
 Frc consts  --      2.1330                 2.2842                 1.2517
 IR Inten    --    216.0671                 2.3637                 0.1153

                     58                     59                     60
                      A                      A                      A
 Frequencies --   1221.7917              1236.0442              1241.3158
 Red. masses --      1.4305                 1.7809                 1.7180
 Frc consts  --      1.2581                 1.6030                 1.5597
 IR Inten    --      7.4217                41.5999                 0.0198

                     61                     62                     63
                      A                      A                      A
 Frequencies --   1268.1559              1270.5084              1341.5632
 Red. masses --      1.0961                 1.0929                 1.5960
 Frc consts  --      1.0386                 1.0394                 1.6924
 IR Inten    --      0.3448                28.9220                 3.8038

                     64                     65                     66
                      A                      A                      A
 Frequencies --   1342.2506              1356.3910              1358.9396
 Red. masses --      1.6001                 1.5854                 1.6009
 Frc consts  --      1.6985                 1.7185                 1.7419
 IR Inten    --      1.3461                 0.0265                 6.1242

                     67                     68                     69
                      A                      A                      A
 Frequencies --   1385.9212              1387.0238              1400.0291
 Red. masses --      1.2364                 1.2515                 1.2585
 Frc consts  --      1.3992                 1.4185                 1.4534
 IR Inten    --      0.0297                 1.1591                 0.1356

                     70                     71                     72
                      A                      A                      A
 Frequencies --   1402.0639              1420.1244              1420.2370
 Red. masses --      1.2586                 1.2959                 1.2961
 Frc consts  --      1.4577                 1.5398                 1.5403
 IR Inten    --      3.0479                 0.4229                 1.0198

                     73                     74                     75
                      A                      A                      A
 Frequencies --   1455.0322              1460.3354              1482.6410
 Red. masses --      1.3616                 1.3873                 1.1112
 Frc consts  --      1.6984                 1.7431                 1.4391
 IR Inten    --     48.7661                 0.1269                 0.0314

                     76                     77                     78
                      A                      A                      A
 Frequencies --   1484.9569              1493.0638              1494.1091
 Red. masses --      1.0923                 1.0786                 1.0827
 Frc consts  --      1.4191                 1.4166                 1.4241
 IR Inten    --      4.3802                 0.0359                23.2569

                     79                     80                     81
                      A                      A                      A
 Frequencies --   1496.5640              1496.6641              1497.3394
 Red. masses --      1.1350                 1.1129                 1.0848
 Frc consts  --      1.4978                 1.4688                 1.4330
 IR Inten    --      6.4086                15.0993                 1.3202

                     82                     83                     84
                      A                      A                      A
 Frequencies --   1498.8197              1511.0089              1511.4465
 Red. masses --      1.1346                 1.0995                 1.1135
 Frc consts  --      1.5018                 1.4790                 1.4988
 IR Inten    --     14.4892                23.6932                56.2093

                     85                     86                     87
                      A                      A                      A
 Frequencies --   1517.1972              1517.7861              1522.2914
 Red. masses --      1.1148                 1.0754                 1.1322
 Frc consts  --      1.5119                 1.4596                 1.5459
 IR Inten    --     71.4029                10.7503                26.6140

                     88                     89                     90
                      A                      A                      A
 Frequencies --   1533.2950              1554.3821              1570.8853
 Red. masses --      1.2062                 1.1197                 1.1193
 Frc consts  --      1.6707                 1.5939                 1.6274
 IR Inten    --      0.1034                 0.8626               283.2562

                     91                     92                     93
                      A                      A                      A
 Frequencies --   2993.0953              2993.3698              3003.1925
 Red. masses --      1.0673                 1.0668                 1.0654
 Frc consts  --      5.6333                 5.6321                 5.6615
 IR Inten    --    124.8875                 6.9300                37.1489

                     94                     95                     96
                      A                      A                      A
 Frequencies --   3003.5852              3008.2414              3009.1436
 Red. masses --      1.0655                 1.0632                 1.0640
 Frc consts  --      5.6632                 5.6688                 5.6766
 IR Inten    --     76.2251               148.2831                 0.5839

                     97                     98                     99
                      A                      A                      A
 Frequencies --   3029.0079              3029.4681              3070.4318
 Red. masses --      1.0385                 1.0386                 1.1077
 Frc consts  --      5.6136                 5.6161                 6.1528
 IR Inten    --     56.8340                17.7247                67.5469

                    100                    101                    102
                      A                      A                      A
 Frequencies --   3070.8769              3077.2711              3078.3960
 Red. masses --      1.1073                 1.1016                 1.1012
 Frc consts  --      6.1522                 6.1464                 6.1486
 IR Inten    --      6.4858                22.3023                48.1192

                    103                    104                    105
                      A                      A                      A
 Frequencies --   3089.6896              3090.3839              3119.7684
 Red. masses --      1.1021                 1.1021                 1.1045
 Frc consts  --      6.1986                 6.2014                 6.3336
 IR Inten    --     31.1226                42.5590                19.0602

                    106                    107                    108
                      A                      A                      A
 Frequencies --   3120.4033              3124.3064              3124.4152
 Red. masses --      1.1045                 1.1046                 1.1046
 Frc consts  --      6.3362                 6.3529                 6.3532
 IR Inten    --     20.0213                 7.9333                31.5542

                    109                    110                    111
                      A                      A                      A
 Frequencies --   3363.7439              3407.0534              3447.2951
 Red. masses --      1.0691                 1.0678                 1.0674
 Frc consts  --      7.1274                 7.3032                 7.4738
 IR Inten    --     15.3105              3252.7230               450.1861

                    112                    113                    114
                      A                      A                      A
 Frequencies --   3468.9415              3503.5431              3508.7921
 Red. masses --      1.0655                 1.0651                 1.0641
 Frc consts  --      7.5545                 7.7029                 7.7190
 IR Inten    --      2.9908                15.8248               367.5222

 Optimization completed.
    -- Stationary point found.
 Normal termination of Gaussian 16 at Thu Sep  1 01:15:40 2022.
