 Gaussian 16, Revision B.01,
 Gaussian 16:  ES64L-G16RevB.01 20-Dec-2017

 ----------------------------------------------------------------------
 # opt=(calcall,tight,modredundant) wb97xd scf=(qc,verytight) def2svpp
 int=grid=ultrafine
 ----------------------------------------------------------------------

 -----
 dimer
 -----
 Symbolic Z-matrix:
 Charge =  0 Multiplicity = 1

 SCF Done:  E(RwB97XD) =  -20667.2720642     a.u. after    8 cycles
 SCF Done:  E(RwB97XD) =  -20667.2720857     a.u. after    4 cycles
 SCF Done:  E(RwB97XD) =  -20667.2720877     a.u. after    3 cycles
 SCF Done:  E(RwB97XD) =  -20667.2720886     a.u. after    3 cycles
 SCF Done:  E(RwB97XD) =  -20667.2720890     a.u. after    2 cycles
 SCF Done:  E(RwB97XD) =  -20667.2720894     a.u. after    2 cycles
 SCF Done:  E(RwB97XD) =  -20667.2720894     a.u. after    2 cycles
 SCF Done:  E(RwB97XD) =  -20667.2720894     a.u. after    2 cycles
 Optimization completed.
    -- Stationary point found.

                         Standard orientation:
 ---------------------------------------------------------------------
 Center     Atomic      Atomic             Coordinates (Angstroms)
 Number     Number       Type             X           Y           Z
 ---------------------------------------------------------------------
      1         35           0       -1.910207    1.697270    0.722626
      2          6           0       -2.499999    0.001339   -0.002359
      3         35           0       -4.313734    0.185840   -0.666672
      4         35           0       -1.338471   -0.536756   -1.452097
      5         35           0       -2.470046   -1.346583    1.392720
      6         35           0        4.313727    0.186133    0.666610
      7          6           0        2.499999    0.001340    0.002358
      8         35           0        1.910211    1.696955   -0.723366
      9         35           0        2.470062   -1.347187   -1.392137
     10         35           0        1.338457   -0.536131    1.452317
 ---------------------------------------------------------------------

 The electronic state is 1-A.
 Alpha  occ. eigenvalues -- -483.08999-483.08999-483.08895-483.08894-483.08880
 Alpha  occ. eigenvalues -- -483.08880-483.08846-483.08846 -62.67222 -62.67222
 Alpha  occ. eigenvalues --  -62.67117 -62.67116 -62.67096 -62.67095 -62.67076
 Alpha  occ. eigenvalues --  -62.67076 -56.48038 -56.48038 -56.47934 -56.47934
 Alpha  occ. eigenvalues --  -56.47915 -56.47915 -56.47893 -56.47893 -56.47603
 Alpha  occ. eigenvalues --  -56.47603 -56.47600 -56.47600 -56.47497 -56.47496
 Alpha  occ. eigenvalues --  -56.47496 -56.47495 -56.47477 -56.47475 -56.47474
 Alpha  occ. eigenvalues --  -56.47474 -56.47454 -56.47454 -56.47453 -56.47453
 Alpha  occ. eigenvalues --  -10.50489 -10.50488  -8.84183  -8.84183  -8.84079
 Alpha  occ. eigenvalues --   -8.84078  -8.84054  -8.84054  -8.84041  -8.84041
 Alpha  occ. eigenvalues --   -6.66889  -6.66889  -6.66792  -6.66791  -6.66769
 Alpha  occ. eigenvalues --   -6.66769  -6.66754  -6.66754  -6.65324  -6.65324
 Alpha  occ. eigenvalues --   -6.65313  -6.65313  -6.65213  -6.65213  -6.65208
 Alpha  occ. eigenvalues --   -6.65208  -6.65186  -6.65186  -6.65182  -6.65182
 Alpha  occ. eigenvalues --   -6.65174  -6.65174  -6.65173  -6.65173  -2.77221
 Alpha  occ. eigenvalues --   -2.77221  -2.77123  -2.77123  -2.77101  -2.77101
 Alpha  occ. eigenvalues --   -2.77085  -2.77085  -2.76785  -2.76785  -2.76777
 Alpha  occ. eigenvalues --   -2.76777  -2.76681  -2.76681  -2.76677  -2.76677
 Alpha  occ. eigenvalues --   -2.76657  -2.76657  -2.76654  -2.76654  -2.76643
 Alpha  occ. eigenvalues --   -2.76643  -2.76641  -2.76641  -2.75528  -2.75528
 Alpha  occ. eigenvalues --   -2.75528  -2.75528  -2.75418  -2.75418  -2.75418
 Alpha  occ. eigenvalues --   -2.75418  -2.75391  -2.75391  -2.75391  -2.75391
 Alpha  occ. eigenvalues --   -2.75381  -2.75381  -2.75381  -2.75381  -1.01364
 Alpha  occ. eigenvalues --   -1.01215  -0.89602  -0.89564  -0.89522  -0.89440
 Alpha  occ. eigenvalues --   -0.89401  -0.89306  -0.69993  -0.69686  -0.55174
 Alpha  occ. eigenvalues --   -0.55120  -0.54926  -0.54892  -0.54693  -0.54611
 Alpha  occ. eigenvalues --   -0.43281  -0.42836  -0.42667  -0.41993  -0.41255
 Alpha  occ. eigenvalues --   -0.39855  -0.39823  -0.39767  -0.39767  -0.38002
 Alpha  occ. eigenvalues --   -0.36960  -0.36931  -0.36634  -0.36600  -0.36492
 Alpha  occ. eigenvalues --   -0.36398
 Alpha virt. eigenvalues --   -0.01861  -0.01843   0.04061   0.04232   0.04239
 Alpha virt. eigenvalues --    0.04261   0.04383   0.04722   0.24692   0.31337
 Alpha virt. eigenvalues --    0.36602   0.36615   0.38198   0.40111   0.40433

 Mulliken charges:
               1
     1  Br   0.077537
     2  C   -0.301664
     3  Br   0.073150
     4  Br   0.081012
     5  Br   0.069966
     6  Br   0.073150
     7  C   -0.301664
     8  Br   0.077537
     9  Br   0.069966
    10  Br   0.081011
 Sum of Mulliken charges =  -0.00000

 Dipole moment (field-independent basis, Debye):
    X=             -0.0000    Y=              0.0374    Z=             -0.0000  Tot=              0.0374
 Quadrupole moment (field-independent basis, Debye-Ang):
   XX=           -153.2628   YY=           -152.4076   ZZ=           -152.5210
   XY=              0.0000   XZ=              0.1199   YZ=             -0.0000

  Exact polarizability: 168.502   0.000 136.229   1.974  -0.000 135.443
 Approx polarizability: 186.682   0.000 180.936   0.342   0.000 180.922

                      1                      2                      3
                      A                      A                      A
 Frequencies --     14.0870                21.2960                24.8777
 Red. masses --     78.8024                78.2709                77.9058
 Frc consts  --      0.0092                 0.0209                 0.0284
 IR Inten    --      0.0000                 0.0001                 0.0195

                      4                      5                      6
                      A                      A                      A
 Frequencies --     28.3964                35.3457                43.0000
 Red. masses --     75.5776                69.5631                70.1897
 Frc consts  --      0.0359                 0.0512                 0.0765
 IR Inten    --      0.0166                 0.0000                 0.0002

                      7                      8                      9
                      A                      A                      A
 Frequencies --    130.4045               131.8665               132.9809
 Red. masses --     78.9146                78.8984                78.9000
 Frc consts  --      0.7907                 0.8083                 0.8221
 IR Inten    --      0.0010                 0.0571                 0.0005

                     10                     11                     12
                      A                      A                      A
 Frequencies --    134.1404               191.1724               191.2089
 Red. masses --     78.8719                69.5601                69.3069
 Frc consts  --      0.8362                 1.4978                 1.4929
 IR Inten    --      0.0000                 0.1872                 0.0673

                     13                     14                     15
                      A                      A                      A
 Frequencies --    191.3688               192.0601               192.4360
 Red. masses --     69.3828                69.0863                69.0500
 Frc consts  --      1.4971                 1.5015                 1.5066
 IR Inten    --      0.0629                 0.0246                 0.0419

                     16                     17                     18
                      A                      A                      A
 Frequencies --    192.7070               283.0736               283.2046
 Red. masses --     69.7664                78.9019                78.9067
 Frc consts  --      1.5265                 3.7251                 3.7288
 IR Inten    --      0.0024                 0.0012                 0.0052

                     19                     20                     21
                      A                      A                      A
 Frequencies --    697.7547               700.5738               702.4842
 Red. masses --     12.6607                12.6533                12.6591
 Frc consts  --      3.6317                 3.6590                 3.6807
 IR Inten    --     23.6200               147.7499                72.5594

                     22                     23                     24
                      A                      A                      A
 Frequencies --    706.7187               710.3142               712.2872
 Red. masses --     12.6617                12.6662                12.6658
 Frc consts  --      3.7259                 3.7653                 3.7861
 IR Inten    --     31.7820                96.9763               140.0171

 - Thermochemistry -
 -------------------
 Temperature   298.150 Kelvin.  Pressure   1.00000 Atm.
 Atom     1 has atomic number 35 and mass  78.91834

 Molecular mass:   655.34669 amu.
 Principal axes and moments of inertia in atomic units:
                           1         2         3
     Eigenvalues --  5654.23315********************
           X            1.00000   0.00000   0.00000
           Y           -0.00000   1.00000   0.00000
           Z           -0.00000  -0.00000   1.00000
 This molecule is an asymmetric top.
 Rotational symmetry number  1.
 Warning -- assumption of classical behavior for rotation
           may cause significant error
 Rotational temperatures (Kelvin)      0.01532     0.00425     0.00425
 Rotational constants (GHZ):           0.31918     0.08866     0.08865
 Zero-point vibrational energy      39738.5 (Joules/Mol)
                                    9.49773 (Kcal/Mol)
 Warning -- explicit consideration of  18 degrees of freedom as
           vibrations may cause significant error
 Vibrational temperatures:     20.27    30.64    35.79    40.86    50.85
          (Kelvin)             61.87   187.62   189.73   191.33   193.00
                              275.05   275.11   275.34   276.33   276.87
                              277.26   407.28   407.47  1003.91  1007.97
                             1010.72  1016.81  1021.98  1024.82

 Zero-point correction=                           0.015136 (Hartree/Particle)
 Thermal correction to Energy=                    0.030950
 Thermal correction to Enthalpy=                  0.031894
 Thermal correction to Gibbs Free Energy=        -0.038313
 Sum of electronic and zero-point Energies=         -20667.256954
 Sum of electronic and thermal Energies=            -20667.241140
 Sum of electronic and thermal Enthalpies=          -20667.240195
 Sum of electronic and thermal Free Energies=       -20667.310402

                     E (Thermal)             CV                S
                      KCal/Mol        Cal/Mol-Kelvin    Cal/Mol-Kelvin
 Total                   19.421             44.984            147.763
 Electronic               0.000              0.000              0.000
 Translational            0.889              2.981             45.322
 Rotational               0.889              2.981             36.103
 Vibrational             17.644             39.022             66.338
 Vibration     1          0.593              1.986              7.330
 Vibration     2          0.593              1.985              6.510
 Vibration     3          0.593              1.985              6.201
 Vibration     4          0.593              1.984              5.938
 Vibration     5          0.594              1.982              5.504
 Vibration     6          0.595              1.980              5.116
 Vibration     7          0.612              1.923              2.940
 Vibration     8          0.612              1.921              2.919
 Vibration     9          0.613              1.920              2.902
 Vibration    10          0.613              1.919              2.886
 Vibration    11          0.634              1.852              2.216
 Vibration    12          0.634              1.852              2.216
 Vibration    13          0.634              1.852              2.215
 Vibration    14          0.634              1.851              2.208
 Vibration    15          0.634              1.850              2.204
 Vibration    16          0.635              1.850              2.202
 Vibration    17          0.682              1.705              1.515
 Vibration    18          0.682              1.705              1.514

 Normal termination of Gaussian 16 at Mon Sep 26 15:34:42 2022.
