 Gaussian 16, Revision B.01,
 Gaussian 16:  ES64L-G16RevB.01 20-Dec-2017

 ----------------------------------------------------------------------
 #T wB97XD/def2svpp opt=tight freq int(grid=ultrafine) scf=(verytight,q
 c) Volume=tight
 ----------------------------------------------------------------------
 -----
 Dimer
 -----
 Symbolic Z-matrix:
 Charge =  0 Multiplicity = 1

 SCF Done:  E(RwB97XD) =  -5992.51005255     a.u. after    7 cycles
 SCF Done:  E(RwB97XD) =  -5992.51205952     a.u. after   11 cycles
 SCF Done:  E(RwB97XD) =  -5992.50938374     a.u. after   11 cycles
 SCF Done:  E(RwB97XD) =  -5992.51083372     a.u. after   12 cycles
 SCF Done:  E(RwB97XD) =  -5992.51326340     a.u. after    2 cycles
 SCF Done:  E(RwB97XD) =  -5992.51426165     a.u. after    8 cycles
 SCF Done:  E(RwB97XD) =  -5992.51400130     a.u. after    9 cycles
 SCF Done:  E(RwB97XD) =  -5992.51478575     a.u. after    9 cycles
 SCF Done:  E(RwB97XD) =  -5992.51502222     a.u. after    8 cycles
 SCF Done:  E(RwB97XD) =  -5992.51467474     a.u. after    9 cycles
 SCF Done:  E(RwB97XD) =  -5992.51534537     a.u. after    2 cycles
 SCF Done:  E(RwB97XD) =  -5992.51534537     a.u. after    2 cycles
 SCF Done:  E(RwB97XD) =  -5992.51534537     a.u. after    2 cycles
 SCF Done:  E(RwB97XD) =  -5992.51534538     a.u. after    2 cycles
 SCF Done:  E(RwB97XD) =  -5992.51534538     a.u. after    2 cycles
 SCF Done:  E(RwB97XD) =  -5992.51534538     a.u. after    2 cycles
 SCF Done:  E(RwB97XD) =  -5992.51534538     a.u. after    2 cycles
 SCF Done:  E(RwB97XD) =  -5992.51534539     a.u. after    2 cycles
 SCF Done:  E(RwB97XD) =  -5992.51534538     a.u. after    2 cycles
 Optimization completed.
    -- Stationary point found.
 Normal termination of Gaussian 16 at Mon Feb  6 02:32:30 2023.

 ---------------------------------------------------------------------
 #T Geom=AllCheck Guess=TCheck SCRF=Check GenChk RwB97XD/def2SVPP Freq
 ---------------------------------------------------------------------
 Structure from the checkpoint file:  "20.chk"
 -----
 Dimer
 -----
 Charge =  0 Multiplicity = 1

                         Standard orientation:
 ---------------------------------------------------------------------
 Center     Atomic      Atomic             Coordinates (Angstroms)
 Number     Number       Type             X           Y           Z
 ---------------------------------------------------------------------
      1          8           0        1.036705   -2.270297    1.679885
      2          6           0        1.609548   -0.995011    1.764203
      3          6           0        2.379639   -0.554204    0.487940
      4          6           0        3.381514   -1.663597    0.096503
      5          8           0        2.738070   -2.870677   -0.252421
      6          6           0        1.419284   -0.258145   -0.679928
      7          8           0        0.717548   -1.394499   -1.126791
      8          6           0        3.119213    0.724218    0.892159
      9         35           0        4.243722    1.531576   -0.481995
     10          1           0        0.107229   -2.190913    1.356328
     11          1           0        2.324506   -1.016089    2.607892
     12          1           0        0.842773   -0.232688    2.008437
     13          1           0        4.091506   -1.825066    0.934020
     14          1           0        3.972244   -1.349760   -0.779321
     15          1           0        2.156605   -3.092773    0.508049
     16          1           0        1.991528    0.190199   -1.514608
     17          1           0        0.669009    0.486865   -0.357622
     18          1           0        1.342699   -2.152550   -1.121303
     19          1           0        3.794717    0.530232    1.738358
     20          1           0        2.407783    1.509913    1.189168
     21          8           0       -3.551872   -2.727553   -0.470383
     22          6           0       -4.143677   -1.465860   -0.265813
     23          6           0       -3.091572   -0.332603   -0.139920
     24          6           0       -2.164886   -0.620526    1.058559
     25          8           0       -1.519241   -1.866775    0.995239
     26          6           0       -2.326176   -0.211873   -1.479659
     27          8           0       -1.816956   -1.430783   -1.954228
     28          6           0       -3.878778    0.951116    0.124958
     29         35           0       -2.788350    2.560893    0.315032
     30          1           0       -2.953292   -2.613422   -1.244874
     31          1           0       -4.737824   -1.535660    0.662385
     32          1           0       -4.844681   -1.224475   -1.091247
     33          1           0       -2.762704   -0.544809    1.991784
     34          1           0       -1.380726    0.152949    1.112688
     35          1           0       -2.158918   -2.522534    0.641407
     36          1           0       -1.520355    0.538454   -1.379890
     37          1           0       -3.030607    0.172718   -2.241427
     38          1           0       -0.878623   -1.516297   -1.658528
     39          1           0       -4.456256    0.877955    1.058564
     40          1           0       -4.573319    1.164924   -0.700959
 ---------------------------------------------------------------------

 SCF Done:  E(RwB97XD) =  -5992.51534538     a.u. after    1 cycles

 The electronic state is 1-A.
 Alpha  occ. eigenvalues -- -483.06402-483.05938 -62.64610 -62.64151 -56.45381
 Alpha  occ. eigenvalues --  -56.45022 -56.45014 -56.44923 -56.44560 -56.44553
 Alpha  occ. eigenvalues --  -19.26831 -19.26599 -19.26424 -19.26015 -19.25465
 Alpha  occ. eigenvalues --  -19.25320 -10.36766 -10.36435 -10.36033 -10.35852
 Alpha  occ. eigenvalues --  -10.35746 -10.35453 -10.35220 -10.35075 -10.33441
 Alpha  occ. eigenvalues --  -10.33187  -8.81550  -8.81094  -6.64095  -6.63646
 Alpha  occ. eigenvalues --   -6.62790  -6.62760  -6.62329  -6.62302  -2.74457
 Alpha  occ. eigenvalues --   -2.74094  -2.74070  -2.74007  -2.73640  -2.73618
 Alpha  occ. eigenvalues --   -2.73031  -2.73030  -2.72569  -2.72568  -1.15110
 Alpha  occ. eigenvalues --   -1.14364  -1.12554  -1.11654  -1.10958  -1.10591
 Alpha  occ. eigenvalues --   -0.95339  -0.94961  -0.88139  -0.87802  -0.78812
 Alpha  occ. eigenvalues --   -0.78548  -0.77937  -0.77685  -0.76200  -0.75684
 Alpha  occ. eigenvalues --   -0.68426  -0.68247  -0.64561  -0.64162  -0.63563
 Alpha  occ. eigenvalues --   -0.61558  -0.59111  -0.58683  -0.57251  -0.56233
 Alpha  occ. eigenvalues --   -0.55862  -0.54752  -0.54445  -0.53829  -0.53112
 Alpha  occ. eigenvalues --   -0.52938  -0.51546  -0.50980  -0.50751  -0.49611
 Alpha  occ. eigenvalues --   -0.49207  -0.48742  -0.48372  -0.46489  -0.45969
 Alpha  occ. eigenvalues --   -0.45687  -0.45029  -0.43480  -0.41616  -0.40984
 Alpha  occ. eigenvalues --   -0.38974  -0.38497  -0.37147  -0.37045  -0.36715
 Alpha  occ. eigenvalues --   -0.36433  -0.36233  -0.35531  -0.34903  -0.34720
 Alpha virt. eigenvalues --    0.06248   0.06759   0.10525   0.12333   0.13456
 Alpha virt. eigenvalues --    0.14463   0.14790   0.15467   0.16497   0.18197
 Alpha virt. eigenvalues --    0.19179   0.19287   0.19849   0.20434   0.21053

 Mulliken charges:
               1
     1  O   -0.530859
     2  C    0.067966
     3  C   -0.366801
     4  C    0.073336
     5  O   -0.518218
     6  C    0.092472
     7  O   -0.545354
     8  C   -0.207999
     9  Br  -0.106849
    10  H    0.356363
    11  H    0.103826
    12  H    0.108889
    13  H    0.102905
    14  H    0.127927
    15  H    0.345260
    16  H    0.120458
    17  H    0.105411
    18  H    0.344297
    19  H    0.163843
    20  H    0.163557
    21  O   -0.514842
    22  C    0.072754
    23  C   -0.375244
    24  C    0.098133
    25  O   -0.538286
    26  C    0.072993
    27  O   -0.536324
    28  C   -0.201698
    29  Br  -0.115417
    30  H    0.347991
    31  H    0.111904
    32  H    0.106570
    33  H    0.096793
    34  H    0.118684
    35  H    0.343424
    36  H    0.126193
    37  H    0.102462
    38  H    0.355229
    39  H    0.163208
    40  H    0.165046
 Sum of Mulliken charges =   0.00000

 Dipole moment (field-independent basis, Debye):
    X=             -1.6915    Y=              1.9681    Z=              1.7331  Tot=              3.1206
  Exact polarizability: 173.264  10.610 159.711  -1.745  -1.603 133.809
 Approx polarizability: 174.343  11.567 181.399  -3.968  -0.573 158.884
   1 Symmetry operations used in ECPInt.
 ECPInt:  NShTT=   13530 NPrTT=   58324 LenC2=   12328 LenP2D=   35658.
 LDataN:  DoStor=T MaxTD1= 6 Len=  172
 Calling FoFJK, ICntrl=    100127 FMM=F ISym2X=0 I1Cent= 0 IOpClX= 0 NMat=1 NMatS=1 NMatT=0.
 Full mass-weighted force constant matrix:
 Low frequencies ---   -6.1785   -4.2855    0.0103    0.0124    0.0142    4.2152
 Low frequencies ---   15.4538   25.5449   42.0237
 Diagonal vibrational polarizability:

                      1                      2                      3
                      A                      A                      A
 Frequencies --     15.0724                25.4470                42.0130
 Red. masses --     16.2561                 8.6314                 9.2871
 Frc consts  --      0.0022                 0.0033                 0.0097
 IR Inten    --      0.0233                 0.2792                 0.6277

                      4                      5                      6
                      A                      A                      A
 Frequencies --     69.7895                85.8495                87.8078
 Red. masses --      5.0275                 3.7409                 4.0067
 Frc consts  --      0.0144                 0.0162                 0.0182
 IR Inten    --      1.5787                 4.0299                 3.9225

                      7                      8                      9
                      A                      A                      A
 Frequencies --     96.7861               104.0822               126.0253
 Red. masses --      2.8244                 5.6134                 6.5557
 Frc consts  --      0.0156                 0.0358                 0.0613
 IR Inten    --      0.5575                 0.0441                 7.0904

                     10                     11                     12
                      A                      A                      A
 Frequencies --    140.4070               150.4807               167.2124
 Red. masses --      5.9651                 7.0413                 3.2210
 Frc consts  --      0.0693                 0.0939                 0.0531
 IR Inten    --      0.2518                 3.9077                 6.8282

                     13                     14                     15
                      A                      A                      A
 Frequencies --    207.0716               214.7665               235.3697
 Red. masses --      4.6991                 5.0311                 3.4012
 Frc consts  --      0.1187                 0.1367                 0.1110
 IR Inten    --     12.5735                 5.1208                 2.8384

                     16                     17                     18
                      A                      A                      A
 Frequencies --    242.5339               252.3119               261.5694
 Red. masses --      4.6547                 2.6610                 4.4878
 Frc consts  --      0.1613                 0.0998                 0.1809
 IR Inten    --      2.6909                 0.6099                 8.2915

                     19                     20                     21
                      A                      A                      A
 Frequencies --    279.0091               300.8784               317.8982
 Red. masses --      2.5653                 3.7354                 5.2630
 Frc consts  --      0.1177                 0.1992                 0.3134
 IR Inten    --      1.5486                 2.7632                 7.1697

                     22                     23                     24
                      A                      A                      A
 Frequencies --    346.1333               354.2522               355.8227
 Red. masses --      3.9216                 4.9855                 3.6566
 Frc consts  --      0.2768                 0.3686                 0.2728
 IR Inten    --      2.0137                 3.4495                 0.8473

                     25                     26                     27
                      A                      A                      A
 Frequencies --    385.1845               406.0693               451.0668
 Red. masses --      2.4875                 2.6534                 2.7763
 Frc consts  --      0.2174                 0.2578                 0.3328
 IR Inten    --      0.0488                 1.5953                 7.2266

                     28                     29                     30
                      A                      A                      A
 Frequencies --    456.6625               468.1209               484.0541
 Red. masses --      2.9212                 2.9589                 3.4326
 Frc consts  --      0.3589                 0.3820                 0.4739
 IR Inten    --      0.8163                 0.1054                 7.3609

                     31                     32                     33
                      A                      A                      A
 Frequencies --    601.1963               613.5633               622.4837
 Red. masses --      1.1046                 1.2946                 3.7715
 Frc consts  --      0.2352                 0.2871                 0.8610
 IR Inten    --    208.4052               171.7558                12.8658

                     34                     35                     36
                      A                      A                      A
 Frequencies --    625.7644               654.2811               697.4648
 Red. masses --      3.3796                 1.0722                 4.5761
 Frc consts  --      0.7797                 0.2704                 1.3116
 IR Inten    --     25.9975               240.5579                25.5798

                     37                     38                     39
                      A                      A                      A
 Frequencies --    706.7758               709.1921               785.7932
 Red. masses --      4.8344                 1.1150                 3.2085
 Frc consts  --      1.4228                 0.3304                 1.1673
 IR Inten    --     14.8688               166.8468                16.4966

                     40                     41                     42
                      A                      A                      A
 Frequencies --    787.3066               852.0828               858.2091
 Red. masses --      3.2380                 1.6472                 1.6285
 Frc consts  --      1.1825                 0.7046                 0.7067
 IR Inten    --      8.2845                 3.1564                 8.3811

                     43                     44                     45
                      A                      A                      A
 Frequencies --    910.8347               923.0676               952.5254
 Red. masses --      1.2169                 1.2489                 1.3526
 Frc consts  --      0.5948                 0.6270                 0.7231
 IR Inten    --     73.2411               195.0099                15.4064

                     46                     47                     48
                      A                      A                      A
 Frequencies --    959.8669               972.4140               980.7895
 Red. masses --      1.3548                 2.0325                 1.9175
 Frc consts  --      0.7354                 1.1323                 1.0868
 IR Inten    --     24.8870                 6.7395                36.0595

                     49                     50                     51
                      A                      A                      A
 Frequencies --    985.3697               988.3347              1115.6841
 Red. masses --      1.6824                 1.6781                 4.0947
 Frc consts  --      0.9624                 0.9658                 3.0030
 IR Inten    --      2.2045                18.4818                22.3366

                     52                     53                     54
                      A                      A                      A
 Frequencies --   1116.8502              1122.1609              1125.1516
 Red. masses --      4.2524                 3.9174                 2.3155
 Frc consts  --      3.1252                 2.9064                 1.7271
 IR Inten    --      1.0343                28.6389                 2.5185

                     55                     56                     57
                      A                      A                      A
 Frequencies --   1134.1503              1136.8275              1153.7983
 Red. masses --      4.4473                 2.7359                 1.9251
 Frc consts  --      3.3704                 2.0833                 1.5099
 IR Inten    --      4.8289                28.7157                11.8980

                     58                     59                     60
                      A                      A                      A
 Frequencies --   1159.2898              1169.0525              1184.4935
 Red. masses --      2.6078                 2.7864                 2.6895
 Frc consts  --      2.0650                 2.2437                 2.2233
 IR Inten    --     25.2204               126.7910               132.7393

                     61                     62                     63
                      A                      A                      A
 Frequencies --   1205.0465              1222.3005              1241.8120
 Red. masses --      2.2272                 2.4925                 1.2300
 Frc consts  --      1.9055                 2.1940                 1.1175
 IR Inten    --     36.4090                62.6863                 2.4295

                     64                     65                     66
                      A                      A                      A
 Frequencies --   1250.9135              1269.4880              1274.9346
 Red. masses --      1.2291                 1.0758                 1.0783
 Frc consts  --      1.1331                 1.0215                 1.0327
 IR Inten    --      2.1096                 4.4174                40.9907

                     67                     68                     69
                      A                      A                      A
 Frequencies --   1291.5059              1295.2765              1342.4568
 Red. masses --      1.2015                 1.2120                 1.4443
 Frc consts  --      1.1807                 1.1980                 1.5336
 IR Inten    --     16.2462                25.4473                12.1831

                     70                     71                     72
                      A                      A                      A
 Frequencies --   1343.1323              1365.8927              1372.7781
 Red. masses --      1.4701                 1.6719                 1.4771
 Frc consts  --      1.5625                 1.8378                 1.6400
 IR Inten    --     44.6742                 6.4504                 5.7771

                     73                     74                     75
                      A                      A                      A
 Frequencies --   1384.0147              1393.2574              1401.3416
 Red. masses --      1.2971                 1.2271                 1.2618
 Frc consts  --      1.4638                 1.4035                 1.4599
 IR Inten    --      1.2887                 0.6932                 0.5078

                     76                     77                     78
                      A                      A                      A
 Frequencies --   1404.5876              1455.2410              1457.6926
 Red. masses --      1.2483                 1.3875                 1.3323
 Frc consts  --      1.4510                 1.7312                 1.6679
 IR Inten    --      4.1389                 8.2528                 6.2110

                     79                     80                     81
                      A                      A                      A
 Frequencies --   1472.4214              1477.5957              1487.6524
 Red. masses --      1.1204                 1.1228                 1.1928
 Frc consts  --      1.4312                 1.4443                 1.5553
 IR Inten    --      4.9954                 7.5109                27.8043

                     82                     83                     84
                      A                      A                      A
 Frequencies --   1492.6366              1496.5387              1497.1921
 Red. masses --      1.1369                 1.1729                 1.1662
 Frc consts  --      1.4924                 1.5476                 1.5401
 IR Inten    --      4.3765                13.9327                13.5675

                     85                     86                     87
                      A                      A                      A
 Frequencies --   1505.6621              1508.2313              1514.7030
 Red. masses --      1.0902                 1.1256                 1.0942
 Frc consts  --      1.4561                 1.5085                 1.4791
 IR Inten    --     11.9650                23.4964                25.7603

                     88                     89                     90
                      A                      A                      A
 Frequencies --   1518.0751              1525.8873              1528.2026
 Red. masses --      1.0750                 1.1970                 1.1085
 Frc consts  --      1.4596                 1.6420                 1.5253
 IR Inten    --      5.3576                59.2814                15.2250

                     91                     92                     93
                      A                      A                      A
 Frequencies --   1552.4157              1573.4806              2988.6885
 Red. masses --      1.1211                 1.1160                 1.0710
 Frc consts  --      1.5919                 1.6280                 5.6366
 IR Inten    --     58.3860               224.0066                51.5569

                     94                     95                     96
                      A                      A                      A
 Frequencies --   3003.9524              3004.2977              3009.4427
 Red. masses --      1.0672                 1.0691                 1.0626
 Frc consts  --      5.6738                 5.6854                 5.6699
 IR Inten    --     81.5007                38.6711                55.1337

                     97                     98                     99
                      A                      A                      A
 Frequencies --   3026.2700              3030.1363              3071.6699
 Red. masses --      1.0605                 1.0618                 1.1082
 Frc consts  --      5.7225                 5.7443                 6.1605
 IR Inten    --     18.7416                67.9423                47.4834

                    100                    101                    102
                      A                      A                      A
 Frequencies --   3085.5549              3089.1746              3091.3852
 Red. masses --      1.1080                 1.1014                 1.0789
 Frc consts  --      6.2154                 6.1928                 6.0750
 IR Inten    --     49.1079                15.1250                 1.4583

                    103                    104                    105
                      A                      A                      A
 Frequencies --   3092.0043              3095.1054              3105.6592
 Red. masses --      1.0880                 1.0616                 1.0965
 Frc consts  --      6.1288                 5.9919                 6.2311
 IR Inten    --     33.4895                16.3706                24.3968

                    106                    107                    108
                      A                      A                      A
 Frequencies --   3121.0088              3162.5567              3166.0812
 Red. masses --      1.0983                 1.1106                 1.1109
 Frc consts  --      6.3030                 6.5448                 6.5613
 IR Inten    --     17.8451                 2.4549                 2.1285

                    109                    110                    111
                      A                      A                      A
 Frequencies --   3371.4282              3407.4814              3446.6169
 Red. masses --      1.0695                 1.0681                 1.0672
 Frc consts  --      7.1624                 7.3071                 7.4695
 IR Inten    --     63.1768              2857.9174               295.3337

                    112                    113                    114
                      A                      A                      A
 Frequencies --   3476.1123              3507.4283              3519.9986
 Red. masses --      1.0662                 1.0653                 1.0645
 Frc consts  --      7.5903                 7.7217                 7.7710
 IR Inten    --    100.8336               200.6060               193.6759

                           ! Non-Optimized Parameters !
 Normal termination of Gaussian 16 at Mon Feb  6 02:51:31 2023.
