 Gaussian 16, Revision B.01,
 Gaussian 16:  ES64L-G16RevB.01 20-Dec-2017

 ----------------------------------------------------------------------
 #T wB97XD/def2svpp opt=tight freq int(grid=ultrafine) scf=(verytight,q
 c)
 ----------------------------------------------------------------------
 --------------
 Comment gs min
 --------------
 Symbolic Z-matrix:
 Charge =  0 Multiplicity = 1

 SCF Done:  E(RwB97XD) =  -594.060891096     a.u. after    7 cycles
 SCF Done:  E(RwB97XD) =  -594.063585941     a.u. after    9 cycles
 SCF Done:  E(RwB97XD) =  -594.063760443     a.u. after    5 cycles
 SCF Done:  E(RwB97XD) =  -594.063790365     a.u. after    5 cycles
 SCF Done:  E(RwB97XD) =  -594.063833010     a.u. after    7 cycles
 SCF Done:  E(RwB97XD) =  -594.063868180     a.u. after    9 cycles
 SCF Done:  E(RwB97XD) =  -594.063866278     a.u. after    7 cycles
 SCF Done:  E(RwB97XD) =  -594.063887304     a.u. after    7 cycles
 SCF Done:  E(RwB97XD) =  -594.063887894     a.u. after    3 cycles
 SCF Done:  E(RwB97XD) =  -594.063888015     a.u. after    3 cycles
 SCF Done:  E(RwB97XD) =  -594.063888028     a.u. after    2 cycles
 SCF Done:  E(RwB97XD) =  -594.063888028     a.u. after    2 cycles
 Optimization completed.
    -- Stationary point found.
 Normal termination of Gaussian 16 at Thu Aug  4 16:19:39 2022.

 ---------------------------------------------------------------------
 #T Geom=AllCheck Guess=TCheck SCRF=Check GenChk RwB97XD/def2SVPP Freq
 ---------------------------------------------------------------------
 Structure from the checkpoint file:  "/scratch/user/peterchao1/peterchao1/6097784_1659647559000000795552138/Gau-150753.chk"
 --------------
 Comment gs min
 --------------
 Charge =  0 Multiplicity = 1

                         Standard orientation:
 ---------------------------------------------------------------------
 Center     Atomic      Atomic             Coordinates (Angstroms)
 Number     Number       Type             X           Y           Z
 ---------------------------------------------------------------------
      1          9           0       -1.598350   -0.060863    1.529295
      2          6           0       -0.240554    0.054353    1.388814
      3          6           0        0.163119    0.001910   -0.086809
      4          6           0       -0.415675    1.202600   -0.837395
      5          9           0        0.138592    2.368657   -0.358014
      6          6           0        1.689392    0.047316   -0.175574
      7          9           0        2.232568   -1.099860    0.357021
      8          6           0       -0.323850   -1.285284   -0.765284
      9          9           0       -1.665512   -1.230238   -1.039048
     10          1           0        0.240995   -0.770553    1.941818
     11          1           0        0.074110    1.016963    1.828983
     12          1           0       -1.506247    1.248089   -0.698520
     13          1           0       -0.191115    1.133694   -1.917553
     14          1           0        2.091340    0.912513    0.376883
     15          1           0        2.010062    0.122641   -1.230602
     16          1           0       -0.129392   -2.160230   -0.123124
     17          1           0        0.209973   -1.427745   -1.723691
 ---------------------------------------------------------------------

 SCF Done:  E(RwB97XD) =  -594.063888028     a.u. after    1 cycles

 The electronic state is 1-A.
 Alpha  occ. eigenvalues --  -24.81533 -24.81052 -24.80508 -24.80174 -10.38849
 Alpha  occ. eigenvalues --  -10.38278 -10.38133 -10.37628 -10.33613  -1.29774
 Alpha  occ. eigenvalues --   -1.29280  -1.28983  -1.28350  -0.94537  -0.79988
 Alpha  occ. eigenvalues --   -0.79473  -0.79391  -0.67838  -0.63106  -0.63054
 Alpha  occ. eigenvalues --   -0.62682  -0.60156  -0.59919  -0.57811  -0.57192
 Alpha  occ. eigenvalues --   -0.56559  -0.54718  -0.54301  -0.54039  -0.49584
 Alpha  occ. eigenvalues --   -0.46633  -0.45391  -0.44426  -0.43055  -0.42276
 Alpha  occ. eigenvalues --   -0.41234  -0.40510
 Alpha virt. eigenvalues --    0.12846   0.14013   0.15255   0.16159   0.18052
 Alpha virt. eigenvalues --    0.19428   0.21338   0.21411   0.22118   0.24079
 Alpha virt. eigenvalues --    0.24445   0.26074   0.29813   0.30807   0.31282

 Mulliken charges:
               1
     1  F   -0.268577
     2  C    0.148149
     3  C   -0.460649
     4  C    0.140428
     5  F   -0.278828
     6  C    0.131472
     7  F   -0.275125
     8  C    0.153601
     9  F   -0.265979
    10  H    0.121263
    11  H    0.119220
    12  H    0.144849
    13  H    0.111549
    14  H    0.130840
    15  H    0.114080
    16  H    0.126323
    17  H    0.107384
 Sum of Mulliken charges =   0.00000

 Dipole moment (field-independent basis, Debye):
    X=              1.7782    Y=              0.0464    Z=             -0.9776  Tot=              2.0298
  Exact polarizability:  51.787   0.032  51.736   0.117   0.044  52.605
 Approx polarizability:  56.260   0.109  55.100   0.441  -0.114  54.340
   1 Symmetry operations used in ECPInt.
 ECPInt:  NShTT=    2485 NPrTT=   10011 LenC2=    2446 LenP2D=    7686.
 LDataN:  DoStor=T MaxTD1= 6 Len=  172
 Calling FoFJK, ICntrl=    100127 FMM=F ISym2X=0 I1Cent= 0 IOpClX= 0 NMat=1 NMatS=1 NMatT=0.
 Full mass-weighted force constant matrix:
 Low frequencies ---   -0.0010   -0.0009    0.0003    2.7152    4.8725    7.7885
 Low frequencies ---   57.9837  102.0228  105.1321
 Diagonal vibrational polarizability:

                      1                      2                      3
                      A                      A                      A
 Frequencies --     57.9739               102.0225               105.1320
 Red. masses --      5.0742                 6.3491                 5.6028
 Frc consts  --      0.0100                 0.0389                 0.0365
 IR Inten    --      4.7149                 4.8795                 2.8352

                      4                      5                      6
                      A                      A                      A
 Frequencies --    131.0407               176.8740               202.9197
 Red. masses --      3.9564                 6.4301                 4.9479
 Frc consts  --      0.0400                 0.1185                 0.1200
 IR Inten    --      4.4123                 3.0739                 4.4686

                      7                      8                      9
                      A                      A                      A
 Frequencies --    251.5147               320.1449               344.3878
 Red. masses --      3.3390                 5.6811                 2.2613
 Frc consts  --      0.1244                 0.3431                 0.1580
 IR Inten    --      3.2654                 1.5779                 2.2870

                     10                     11                     12
                      A                      A                      A
 Frequencies --    369.6211               464.1292               583.6849
 Red. masses --      3.3466                 3.3037                 4.0531
 Frc consts  --      0.2694                 0.4193                 0.8136
 IR Inten    --      2.9442                 9.4467                20.2004

                     13                     14                     15
                      A                      A                      A
 Frequencies --    627.4411               795.8504               932.3993
 Red. masses --      4.8176                 3.4248                 1.9158
 Frc consts  --      1.1174                 1.2781                 0.9813
 IR Inten    --     29.0318                 1.4691                 3.7414

                     16                     17                     18
                      A                      A                      A
 Frequencies --    956.2273               991.1575              1022.2698
 Red. masses --      1.6014                 1.6418                 1.8423
 Frc consts  --      0.8627                 0.9503                 1.1343
 IR Inten    --      2.7948                 4.2567                 4.1410

                     19                     20                     21
                      A                      A                      A
 Frequencies --   1107.0777              1122.3436              1132.2829
 Red. masses --      6.1121                 5.7014                 5.7705
 Frc consts  --      4.4136                 4.2314                 4.3589
 IR Inten    --     20.1643               109.7115                18.7853

                     22                     23                     24
                      A                      A                      A
 Frequencies --   1142.0582              1223.3483              1234.1501
 Red. masses --      6.0153                 2.4864                 2.0478
 Frc consts  --      4.6226                 2.1924                 1.8377
 IR Inten    --    143.8913                43.2587                31.8845

                     25                     26                     27
                      A                      A                      A
 Frequencies --   1245.3091              1286.2943              1296.5628
 Red. masses --      1.6506                 1.0821                 1.1823
 Frc consts  --      1.5081                 1.0549                 1.1710
 IR Inten    --     16.4472                 0.6993                 2.5111

                     28                     29                     30
                      A                      A                      A
 Frequencies --   1333.9613              1372.2716              1425.7527
 Red. masses --      1.2450                 1.6601                 1.3453
 Frc consts  --      1.3053                 1.8419                 1.6112
 IR Inten    --      2.8152                 0.6806                 5.0322

                     31                     32                     33
                      A                      A                      A
 Frequencies --   1443.5638              1445.3653              1474.0306
 Red. masses --      1.4423                 1.4264                 1.3803
 Frc consts  --      1.7709                 1.7556                 1.7670
 IR Inten    --     19.9117                20.7090                18.7659

                     34                     35                     36
                      A                      A                      A
 Frequencies --   1511.9061              1516.9344              1524.9040
 Red. masses --      1.0848                 1.0853                 1.0933
 Frc consts  --      1.4610                 1.4714                 1.4978
 IR Inten    --      4.5061                 5.3794                10.2510

                     37                     38                     39
                      A                      A                      A
 Frequencies --   1526.9745              3046.1514              3057.0282
 Red. masses --      1.0915                 1.0636                 1.0624
 Frc consts  --      1.4995                 5.8147                 5.8497
 IR Inten    --      1.3851                28.8743                20.9254

                     40                     41                     42
                      A                      A                      A
 Frequencies --   3060.4649              3062.5066              3124.1430
 Red. masses --      1.0590                 1.0647                 1.1092
 Frc consts  --      5.8441                 5.8836                 6.3784
 IR Inten    --     34.4357                26.4021                 4.4092

                     43                     44                     45
                      A                      A                      A
 Frequencies --   3126.7309              3131.5878              3155.2607
 Red. masses --      1.1102                 1.1086                 1.1054
 Frc consts  --      6.3946                 6.4058                 6.4838
 IR Inten    --     32.1001                24.1140                 9.7284

 Optimization completed.
    -- Stationary point found.
 Normal termination of Gaussian 16 at Thu Aug  4 16:21:26 2022.
