 Gaussian 16, Revision B.01,
 Gaussian 16:  ES64L-G16RevB.01 20-Dec-2017

 --------------------------------------------------------------
 #T wB97XD//def2svpp Volume=tight Geom=AllCheckpoint Guess=Read
 --------------------------------------------------------------
 Structure from the checkpoint file:  "13.chk"
 -----
 Dimer
 -----
 Charge =  0 Multiplicity = 1

                         Standard orientation:
 ---------------------------------------------------------------------
 Center     Atomic      Atomic             Coordinates (Angstroms)
 Number     Number       Type             X           Y           Z
 ---------------------------------------------------------------------
      1          7           0        0.217169    1.401081   -0.725818
      2          6           0        0.040719    0.710928    0.552844
      3          6           0       -1.304751   -0.023455    0.584801
      4          8           0       -1.497838   -0.865545   -0.515151
      5          6           0        1.214185   -0.275765    0.681849
      6          8           0        1.302350   -1.039808   -0.495289
      7          1           0        0.706498    2.287694   -0.629775
      8          1           0       -0.665194    1.553803   -1.209939
      9          1           0        0.055193    1.403297    1.418409
     10          1           0       -2.127282    0.714565    0.573198
     11          1           0       -1.376363   -0.572604    1.548494
     12          1           0       -0.672915   -1.367729   -0.642761
     13          1           0        1.064773   -0.966593    1.528421
     14          1           0        2.156445    0.282247    0.865198
     15          1           0        1.201650   -0.369675   -1.203967
 ---------------------------------------------------------------------

 SCF Done:  E(RwB97XD) =  -324.547334888     A.U. after    1 cycles

 The electronic state is 1-A.
 Alpha  occ. eigenvalues --  -19.24870 -19.23495 -14.43631 -10.33798 -10.33716
 Alpha  occ. eigenvalues --  -10.33119  -1.12288  -1.09781  -0.98631  -0.83607
 Alpha  occ. eigenvalues --   -0.76091  -0.68692  -0.61513  -0.60315  -0.57309
 Alpha  occ. eigenvalues --   -0.56485  -0.52781  -0.49262  -0.48981  -0.48455
 Alpha  occ. eigenvalues --   -0.42273  -0.41250  -0.35569  -0.35219  -0.33181
 Alpha virt. eigenvalues --    0.11976   0.16226   0.17489   0.18717   0.19023
 Alpha virt. eigenvalues --    0.20323   0.23140   0.23382   0.24872   0.27406
 Alpha virt. eigenvalues --    0.29449   0.29922   0.33562   0.36286   0.54528

 Mulliken charges:
               1
     1  N   -0.531847
     2  C   -0.168371
     3  C    0.044017
     4  O   -0.507931
     5  C    0.057460
     6  O   -0.511172
     7  H    0.233832
     8  H    0.244005
     9  H    0.095826
    10  H    0.102066
    11  H    0.092521
    12  H    0.318716
    13  H    0.108547
    14  H    0.094064
    15  H    0.328267
 Sum of Mulliken charges =  -0.00000

 Dipole moment (field-independent basis, Debye):
    X=              0.5714    Y=              3.0806    Z=              1.3056  Tot=              3.3943
 Evaluate density.
 Using the total density.
 Monte-Carlo method of calculating molar volume:
 based on  0.001 e/bohr**3 density envelope.
 Number of points per bohr**3 =  100 CutOff= 1.00D-04
 Using the SCF density.
 There are      1581 points.  Will hold      1581 in memory.
 LenV=  1048387789 MDV=  1048576000.
 Box volume = 3952.958 fraction occupied=0.202
 Integrated density= 4.2189598418395370D+01 error=-7.8104015816046299D+00

 Normal termination of Gaussian 16 at Fri Feb  3 13:00:36 2023.
