 Gaussian 16, Revision B.01,
 Gaussian 16:  ES64L-G16RevB.01 20-Dec-2017

 --------------------------------------------------------------
 #T wB97XD//def2svpp Volume=tight Geom=AllCheckpoint Guess=Read
 --------------------------------------------------------------
 Structure from the checkpoint file:  "16.chk"
 -------
 Monomer
 -------
 Charge =  0 Multiplicity = 1

                         Standard orientation:
 ---------------------------------------------------------------------
 Center     Atomic      Atomic             Coordinates (Angstroms)
 Number     Number       Type             X           Y           Z
 ---------------------------------------------------------------------
      1          6           0        0.871778    0.150037   -1.254774
      2          6           0       -0.000009    0.000000   -0.000003
      3          6           0        0.692498    0.681440    1.188714
      4          6           0       -1.365086    0.658995   -0.243469
      5          6           0       -0.199192   -1.490469    0.309520
      6          1           0        1.032653    1.214937   -1.502407
      7          1           0        0.397423   -0.332025   -2.128740
      8          1           0        1.862981   -0.316184   -1.108551
      9          1           0        0.849410    1.757868    0.994020
     10          1           0        1.679842    0.226813    1.387924
     11          1           0        0.086567    0.589367    2.108269
     12          1           0       -1.252807    1.734923   -0.469278
     13          1           0       -2.015614    0.566473    0.645054
     14          1           0       -1.887989    0.187856   -1.095421
     15          1           0        0.768821   -1.992182    0.489699
     16          1           0       -0.696740   -2.008194   -0.530492
     17          1           0       -0.824485   -1.629670    1.209996
 ---------------------------------------------------------------------

 SCF Done:  E(RwB97XD) =  -197.547689217     A.U. after    1 cycles

 The electronic state is 1-A.
 Alpha  occ. eigenvalues --  -10.30443 -10.27712 -10.27712 -10.27712 -10.27709
 Alpha  occ. eigenvalues --   -0.91235  -0.76935  -0.76935  -0.76935  -0.61685
 Alpha  occ. eigenvalues --   -0.53324  -0.53324  -0.53324  -0.48179  -0.48179
 Alpha  occ. eigenvalues --   -0.44232  -0.44232  -0.44232  -0.39972  -0.39972
 Alpha  occ. eigenvalues --   -0.39972
 Alpha virt. eigenvalues --    0.12461   0.18532   0.18532   0.18532   0.20257
 Alpha virt. eigenvalues --    0.20257   0.20257   0.23485   0.23485   0.27288
 Alpha virt. eigenvalues --    0.27288   0.27288   0.27609   0.31239   0.31239

 Mulliken charges:
               1
     1  C   -0.269805
     2  C   -0.259697
     3  C   -0.269816
     4  C   -0.269811
     5  C   -0.269814
     6  H    0.111580
     7  H    0.111578
     8  H    0.111574
     9  H    0.111579
    10  H    0.111578
    11  H    0.111580
    12  H    0.111580
    13  H    0.111579
    14  H    0.111579
    15  H    0.111577
    16  H    0.111579
    17  H    0.111581
 Sum of Mulliken charges =   0.00000

 Dipole moment (field-independent basis, Debye):
    X=             -0.0000    Y=              0.0000    Z=              0.0000  Tot=              0.0000
 Evaluate density.
 Using the total density.
 Monte-Carlo method of calculating molar volume:
 based on  0.001 e/bohr**3 density envelope.
 Number of points per bohr**3 =  100 CutOff= 1.00D-04
 Using the SCF density.
 There are      1734 points.  Will hold      1734 in memory.
 LenV=  1048387983 MDV=  1048576000.
 Box volume = 5214.101 fraction occupied=0.193
 Integrated density= 4.8430506699941731D+01 error= 6.4305066999417306D+00

 Normal termination of Gaussian 16 at Fri Sep 23 14:35:08 2022.
