 Gaussian 16, Revision B.01,
 Gaussian 16:  ES64L-G16RevB.01 20-Dec-2017

 --------------------------------------------------------------
 #T wB97XD//def2svpp Volume=tight Geom=AllCheckpoint Guess=Read
 --------------------------------------------------------------
 Structure from the checkpoint file:  "13.chk"
 -------
 Monomer
 -------
 Charge =  0 Multiplicity = 1

                         Standard orientation:
 ---------------------------------------------------------------------
 Center     Atomic      Atomic             Coordinates (Angstroms)
 Number     Number       Type             X           Y           Z
 ---------------------------------------------------------------------
      1          8           0       -1.595663   -0.136884    1.345371
      2          6           0       -0.190337    0.079421    1.263139
      3          6           0        0.238734    0.006465   -0.204834
      4          6           0       -0.652479    0.929877   -1.063614
      5          8           0       -0.881496    2.186123   -0.478539
      6          6           0        1.693454    0.497159   -0.298837
      7          8           0        2.571470   -0.100064    0.624663
      8          6           0        0.120301   -1.435421   -0.731159
      9          8           0       -1.177482   -1.956159   -0.686705
     10          1           0       -1.858000   -0.189280    2.273729
     11          1           0        0.360612   -0.678330    1.848999
     12          1           0        0.068661    1.073182    1.673517
     13          1           0       -1.599626    0.409414   -1.288537
     14          1           0       -0.148064    1.116630   -2.028191
     15          1           0       -1.560070    2.069497    0.200822
     16          1           0        1.709230    1.577974   -0.084555
     17          1           0        2.052633    0.364398   -1.340852
     18          1           0        2.731180   -1.016554    0.365503
     19          1           0        0.823082   -2.081895   -0.157677
     20          1           0        0.448324   -1.464277   -1.787395
     21          1           0       -1.620633   -1.589897    0.098161
 ---------------------------------------------------------------------

 SCF Done:  E(RwB97XD) =  -498.056238613     A.U. after    1 cycles

 The electronic state is 1-A.
 Alpha  occ. eigenvalues --  -19.28722 -19.25816 -19.24835 -19.23502 -10.35183
 Alpha  occ. eigenvalues --  -10.34196 -10.33917 -10.33397 -10.30804  -1.14641
 Alpha  occ. eigenvalues --   -1.12128  -1.11109  -1.10192  -0.90485  -0.78434
 Alpha  occ. eigenvalues --   -0.76604  -0.75958  -0.66355  -0.63966  -0.61118
 Alpha  occ. eigenvalues --   -0.60859  -0.58880  -0.54505  -0.53702  -0.52415
 Alpha  occ. eigenvalues --   -0.51697  -0.50290  -0.49105  -0.47221  -0.44872
 Alpha  occ. eigenvalues --   -0.43495  -0.40899  -0.40202  -0.37634  -0.36821
 Alpha  occ. eigenvalues --   -0.35005  -0.33710
 Alpha virt. eigenvalues --    0.10608   0.12041   0.15678   0.16462   0.18271
 Alpha virt. eigenvalues --    0.19097   0.19986   0.22173   0.22622   0.23355
 Alpha virt. eigenvalues --    0.24400   0.24756   0.27013   0.29172   0.30398

 Mulliken charges:
               1
     1  O   -0.510496
     2  C    0.023660
     3  C   -0.381656
     4  C    0.066255
     5  O   -0.490701
     6  C    0.053812
     7  O   -0.485814
     8  C    0.089751
     9  O   -0.502330
    10  H    0.335028
    11  H    0.109423
    12  H    0.114521
    13  H    0.116843
    14  H    0.101762
    15  H    0.324212
    16  H    0.126101
    17  H    0.098980
    18  H    0.320511
    19  H    0.063156
    20  H    0.097717
    21  H    0.329266
 Sum of Mulliken charges =  -0.00000

 Dipole moment (field-independent basis, Debye):
    X=             -0.1862    Y=             -0.6726    Z=              2.2904  Tot=              2.3944
 Evaluate density.
 Using the total density.
 Monte-Carlo method of calculating molar volume:
 based on  0.001 e/bohr**3 density envelope.
 Number of points per bohr**3 =  100 CutOff= 1.00D-04
 Using the SCF density.
 There are      1785 points.  Will hold      1785 in memory.
 LenV=  1048261000 MDV=  1048576000.
 Box volume = 5688.799 fraction occupied=0.177
 Integrated density= 8.8810072186412370D+01 error= 1.4810072186412370D+01

 Normal termination of Gaussian 16 at Fri Sep 23 14:23:51 2022.
