 Gaussian 16, Revision B.01,
 Gaussian 16:  ES64L-G16RevB.01 20-Dec-2017

 ----------------------------------------------------------------------
 #T wB97XD/def2svpp opt=tight freq int(grid=ultrafine) scf=(verytight,q
 c) Volume=tight
 ----------------------------------------------------------------------
 -----
 Dimer
 -----
 Symbolic Z-matrix:
 Charge =  0 Multiplicity = 1

 SCF Done:  E(RwB97XD) =  -309.727602472     a.u. after    7 cycles
 SCF Done:  E(RwB97XD) =  -309.729676927     a.u. after   10 cycles
 SCF Done:  E(RwB97XD) =  -309.729776441     a.u. after    7 cycles
 SCF Done:  E(RwB97XD) =  -309.729748495     a.u. after    7 cycles
 SCF Done:  E(RwB97XD) =  -309.729764574     a.u. after    8 cycles
 SCF Done:  E(RwB97XD) =  -309.729800305     a.u. after    5 cycles
 SCF Done:  E(RwB97XD) =  -309.729814829     a.u. after    5 cycles
 SCF Done:  E(RwB97XD) =  -309.729835624     a.u. after    4 cycles
 SCF Done:  E(RwB97XD) =  -309.729832784     a.u. after    5 cycles
 SCF Done:  E(RwB97XD) =  -309.729847094     a.u. after    5 cycles
 SCF Done:  E(RwB97XD) =  -309.729854982     a.u. after    2 cycles
 SCF Done:  E(RwB97XD) =  -309.729854995     a.u. after    2 cycles
 SCF Done:  E(RwB97XD) =  -309.729855001     a.u. after    2 cycles
 SCF Done:  E(RwB97XD) =  -309.729855006     a.u. after    2 cycles
 SCF Done:  E(RwB97XD) =  -309.729855009     a.u. after    2 cycles
 SCF Done:  E(RwB97XD) =  -309.729855008     a.u. after    2 cycles
 SCF Done:  E(RwB97XD) =  -309.729855011     a.u. after    2 cycles
 SCF Done:  E(RwB97XD) =  -309.729855009     a.u. after    2 cycles
 SCF Done:  E(RwB97XD) =  -309.729855011     a.u. after    2 cycles
 Optimization completed.
    -- Stationary point found.

 1\1\GINC-C390\FOpt\RwB97XD\def2SVPP\C4H12O2\PETERCHAO1\03-Feb-2023\0\\
 #T wB97XD/def2svpp opt=tight freq int(grid=ultrafine) scf=(verytight,q
 c) Volume=tight\\Dimer\\0,1\C,-2.1180624138,-0.7894640482,-0.722834121
 3\C,-1.7833504728,0.6104346746,-0.2356626675\O,-1.1501716708,0.6120491
 867,1.0348880866\H,-2.5744828323,-0.7528844362,-1.7268720643\H,-2.8371
 390178,-1.2853685392,-0.0449570064\H,-1.1986869618,-1.3966655692,-0.76
 8258426\H,-2.6870779959,1.2498052578,-0.20612286\H,-1.0651026619,1.091
 5822953,-0.9172520307\H,-1.7435686067,0.2092149064,1.6844145026\C,1.95

 Normal termination of Gaussian 16 at Fri Feb  3 10:57:52 2023.

 ---------------------------------------------------------------------
 #T Geom=AllCheck Guess=TCheck SCRF=Check GenChk RwB97XD/def2SVPP Freq
 ---------------------------------------------------------------------
 Structure from the checkpoint file:  "8.chk"
 -----
 Dimer
 -----
 Charge =  0 Multiplicity = 1

                         Standard orientation:
 ---------------------------------------------------------------------
 Center     Atomic      Atomic             Coordinates (Angstroms)
 Number     Number       Type             X           Y           Z
 ---------------------------------------------------------------------
      1          6           0        2.126423    0.614421   -0.836261
      2          6           0        1.769595   -0.664172   -0.096695
      3          8           0        1.131811   -0.418163    1.147462
      4          1           0        2.585937    0.383437   -1.812602
      5          1           0        2.850151    1.219151   -0.259174
      6          1           0        1.216152    1.214689   -1.000864
      7          1           0        2.663810   -1.298807    0.058257
      8          1           0        1.046924   -1.255120   -0.680197
      9          1           0        1.728624    0.091544    1.713407
     10          6           0       -1.969527   -0.978643   -0.539979
     11          6           0       -2.181531    0.383112    0.111243
     12          8           0       -1.000247    1.127755    0.222722
     13          1           0       -2.925048   -1.520194   -0.655114
     14          1           0       -1.298292   -1.603146    0.076901
     15          1           0       -1.512827   -0.860641   -1.538288
     16          1           0       -2.664551    0.243709    1.102325
     17          1           0       -2.877368    0.985537   -0.497378
     18          1           0       -0.335783    0.594800    0.701400
 ---------------------------------------------------------------------

 SCF Done:  E(RwB97XD) =  -309.729855011     a.u. after    1 cycles

 The electronic state is 1-A.
 Alpha  occ. eigenvalues --  -19.27473 -19.21698 -10.34814 -10.31960 -10.28654
 Alpha  occ. eigenvalues --  -10.27325  -1.13280  -1.08251  -0.84583  -0.82101
 Alpha  occ. eigenvalues --   -0.72425  -0.69677  -0.60985  -0.57216  -0.55321
 Alpha  occ. eigenvalues --   -0.53423  -0.52264  -0.50558  -0.47559  -0.46514
 Alpha  occ. eigenvalues --   -0.44901  -0.43839  -0.42214  -0.38954  -0.36972
 Alpha  occ. eigenvalues --   -0.33047
 Alpha virt. eigenvalues --    0.12094   0.15577   0.16632   0.18217   0.19665
 Alpha virt. eigenvalues --    0.20500   0.21505   0.22618   0.23239   0.25140
 Alpha virt. eigenvalues --    0.25768   0.26904   0.28093   0.31582   0.32467

 Mulliken charges:
               1
     1  C   -0.381327
     2  C   -0.036060
     3  O   -0.500307
     4  H    0.124612
     5  H    0.110908
     6  H    0.157630
     7  H    0.108061
     8  H    0.125244
     9  H    0.328682
    10  C   -0.389989
    11  C    0.002461
    12  O   -0.522926
    13  H    0.115169
    14  H    0.128678
    15  H    0.122337
    16  H    0.083227
    17  H    0.098048
    18  H    0.325549
 Sum of Mulliken charges =  -0.00000

 Dipole moment (field-independent basis, Debye):
    X=              2.1060    Y=             -1.1491    Z=              0.2992  Tot=              2.4177
  Exact polarizability:  60.099   0.528  49.400  -0.519   0.817  49.865
 Approx polarizability:  55.244   0.447  49.827   0.484   0.551  51.601
   1 Symmetry operations used in ECPInt.
 ECPInt:  NShTT=    1830 NPrTT=    7374 LenC2=    1822 LenP2D=    5925.
 LDataN:  DoStor=T MaxTD1= 6 Len=  172
 Calling FoFJK, ICntrl=    100127 FMM=F ISym2X=0 I1Cent= 0 IOpClX= 0 NMat=1 NMatS=1 NMatT=0.
 Full mass-weighted force constant matrix:
 Low frequencies ---   -9.0328   -0.0005    0.0005    0.0017    5.5110   15.0420
 Low frequencies ---   40.6280   79.5429   98.3526
 Diagonal vibrational polarizability:

                      1                      2                      3
                      A                      A                      A
 Frequencies --     40.5648                79.4874                98.3372
 Red. masses --      2.8455                 2.4345                 3.1366
 Frc consts  --      0.0028                 0.0091                 0.0179
 IR Inten    --      2.1073                 1.1635                 9.9125

                      4                      5                      6
                      A                      A                      A
 Frequencies --    115.5770               133.4976               211.0816
 Red. masses --      2.0304                 2.7957                 3.5319
 Frc consts  --      0.0160                 0.0294                 0.0927
 IR Inten    --      2.1997                 3.8315                 4.0062

                      7                      8                      9
                      A                      A                      A
 Frequencies --    307.2974               317.2425               378.0447
 Red. masses --      1.1396                 1.1331                 1.1933
 Frc consts  --      0.0634                 0.0672                 0.1005
 IR Inten    --      0.4597                 1.0084                87.1087

                     10                     11                     12
                      A                      A                      A
 Frequencies --    439.4763               467.9656               770.2769
 Red. masses --      2.6140                 2.2532                 1.0489
 Frc consts  --      0.2975                 0.2907                 0.3667
 IR Inten    --      6.4904                51.4599               134.0811

                     13                     14                     15
                      A                      A                      A
 Frequencies --    822.3248               826.3624               915.4468
 Red. masses --      1.0876                 1.0788                 2.1025
 Frc consts  --      0.4333                 0.4340                 1.0381
 IR Inten    --      8.4463                21.0761                10.4287

                     16                     17                     18
                      A                      A                      A
 Frequencies --    918.2944              1083.5393              1099.0522
 Red. masses --      2.0342                 1.4735                 2.0737
 Frc consts  --      1.0107                 1.0193                 1.4758
 IR Inten    --      4.0177                25.5765                 7.5298

                     19                     20                     21
                      A                      A                      A
 Frequencies --   1121.3496              1155.1456              1166.6523
 Red. masses --      2.7210                 1.7586                 1.7838
 Frc consts  --      2.0159                 1.3826                 1.4305
 IR Inten    --    113.8834                87.7635                17.4908

                     22                     23                     24
                      A                      A                      A
 Frequencies --   1184.6627              1293.7318              1314.6651
 Red. masses --      2.5239                 1.2764                 1.1322
 Frc consts  --      2.0869                 1.2587                 1.1530
 IR Inten    --     47.9620                19.8900                 7.2219

                     25                     26                     27
                      A                      A                      A
 Frequencies --   1385.7572              1399.3185              1413.0976
 Red. masses --      1.2191                 1.2448                 1.2018
 Frc consts  --      1.3793                 1.4361                 1.4140
 IR Inten    --      2.6884                 1.7117                10.3668

                     28                     29                     30
                      A                      A                      A
 Frequencies --   1434.2803              1449.0142              1471.7049
 Red. masses --      1.3064                 1.3297                 1.1316
 Frc consts  --      1.5835                 1.6449                 1.4440
 IR Inten    --     11.6607                72.8589                36.8200

                     31                     32                     33
                      A                      A                      A
 Frequencies --   1487.3438              1496.6860              1497.9934
 Red. masses --      1.0521                 1.0866                 1.0463
 Frc consts  --      1.3712                 1.4340                 1.3833
 IR Inten    --      3.0460                 7.2445                20.7185

                     34                     35                     36
                      A                      A                      A
 Frequencies --   1509.8702              1519.9346              1525.3080
 Red. masses --      1.0764                 1.0887                 1.0973
 Frc consts  --      1.4458                 1.4819                 1.5041
 IR Inten    --     24.4539                 1.5820                 0.1468

                     37                     38                     39
                      A                      A                      A
 Frequencies --   2983.0003              3027.7450              3029.1499
 Red. masses --      1.0724                 1.0375                 1.0501
 Frc consts  --      5.6221                 5.6039                 5.6771
 IR Inten    --    102.2588                11.0980                37.2385

                     40                     41                     42
                      A                      A                      A
 Frequencies --   3033.0854              3091.5742              3118.3650
 Red. masses --      1.0601                 1.0964                 1.1015
 Frc consts  --      5.7458                 6.1740                 6.3108
 IR Inten    --     50.6379                29.2119                 7.0856

                     43                     44                     45
                      A                      A                      A
 Frequencies --   3123.4075              3128.4771              3138.6543
 Red. masses --      1.1039                 1.1056                 1.1002
 Frc consts  --      6.3451                 6.3756                 6.3857
 IR Inten    --     44.2162                29.7002                28.5398

                     46                     47                     48
                      A                      A                      A
 Frequencies --   3152.3341              3585.5161              3764.2232
 Red. masses --      1.1066                 1.0675                 1.0660
 Frc consts  --      6.4792                 8.0855                 8.8994
 IR Inten    --      4.7714               437.2962                34.9747

                           ! Non-Optimized Parameters !

 1\1\GINC-C390\Freq\RwB97XD\def2SVPP\C4H12O2\PETERCHAO1\03-Feb-2023\0\\
 #T Geom=AllCheck Guess=TCheck SCRF=Check GenChk RwB97XD/def2SVPP Freq\
 \Dimer\\0,1\C,-2.1180624138,-0.7894640482,-0.7228341213\C,-1.783350472
 8,0.6104346746,-0.2356626675\O,-1.1501716708,0.6120491867,1.0348880866
 \H,-2.5744828323,-0.7528844362,-1.7268720643\H,-2.8371390178,-1.285368
 5392,-0.0449570064\H,-1.1986869618,-1.3966655692,-0.768258426\H,-2.687
 0779959,1.2498052578,-0.20612286\H,-1.0651026619,1.0915822953,-0.91725
 20307\H,-1.7435686067,0.2092149064,1.6844145026\C,1.953880978,0.890319

 Normal termination of Gaussian 16 at Fri Feb  3 10:59:15 2023.
