 Gaussian 16, Revision B.01,
 Gaussian 16:  ES64L-G16RevB.01 20-Dec-2017

 ----------------------------------------------------------------------
 #T wB97XD/def2svpp opt=tight freq int(grid=ultrafine) scf=(verytight,q
 c)
 ----------------------------------------------------------------------
 -----
 dimer
 -----
 Symbolic Z-matrix:
 Charge =  0 Multiplicity = 1

 SCF Done:  E(RwB97XD) =  -1092.15420264     a.u. after    8 cycles
 SCF Done:  E(RwB97XD) =  -1092.15722068     a.u. after    9 cycles
 SCF Done:  E(RwB97XD) =  -1092.15785481     a.u. after    8 cycles
 SCF Done:  E(RwB97XD) =  -1092.15808716     a.u. after    9 cycles
 SCF Done:  E(RwB97XD) =  -1092.15841747     a.u. after    7 cycles
 SCF Done:  E(RwB97XD) =  -1092.15855307     a.u. after    7 cycles
 SCF Done:  E(RwB97XD) =  -1092.15868883     a.u. after    7 cycles
 SCF Done:  E(RwB97XD) =  -1092.15874859     a.u. after    5 cycles
 SCF Done:  E(RwB97XD) =  -1092.15876516     a.u. after    4 cycles
 SCF Done:  E(RwB97XD) =  -1092.15877542     a.u. after    4 cycles
 SCF Done:  E(RwB97XD) =  -1092.15880316     a.u. after    2 cycles
 SCF Done:  E(RwB97XD) =  -1092.15880316     a.u. after    2 cycles
 SCF Done:  E(RwB97XD) =  -1092.15880316     a.u. after    2 cycles
 SCF Done:  E(RwB97XD) =  -1092.15880316     a.u. after    2 cycles
 SCF Done:  E(RwB97XD) =  -1092.15880316     a.u. after    2 cycles
 SCF Done:  E(RwB97XD) =  -1092.15880316     a.u. after    2 cycles
 SCF Done:  E(RwB97XD) =  -1092.15880316     a.u. after    2 cycles
 SCF Done:  E(RwB97XD) =  -1092.15880316     a.u. after    2 cycles
 SCF Done:  E(RwB97XD) =  -1092.15880316     a.u. after    2 cycles
 Optimization completed.
    -- Stationary point found.
 Normal termination of Gaussian 16 at Tue Aug  9 18:05:44 2022.

 ---------------------------------------------------------------------
 #T Geom=AllCheck Guess=TCheck SCRF=Check GenChk RwB97XD/def2SVPP Freq
 ---------------------------------------------------------------------
 Structure from the checkpoint file:  "/scratch/user/peterchao1/peterchao1/6113307_1660079070000000329054443/Gau-46479.chk"
 -----
 dimer
 -----
 Charge =  0 Multiplicity = 1

                         Standard orientation:
 ---------------------------------------------------------------------
 Center     Atomic      Atomic             Coordinates (Angstroms)
 Number     Number       Type             X           Y           Z
 ---------------------------------------------------------------------
      1          8           0       -0.883000    0.966068   -1.335798
      2          6           0       -2.085599    0.238200   -1.417202
      3          6           0       -2.626231   -0.206267   -0.040512
      4          6           0       -2.853594    1.010604    0.884793
      5          8           0       -1.716654    1.836618    1.026598
      6          6           0       -3.957356   -0.932393   -0.242246
      7          9           0       -4.888993   -0.101579   -0.819807
      8          6           0       -1.644088   -1.178701    0.610774
      9          9           0       -2.144297   -1.642266    1.809798
     10          1           0       -1.007492    1.607434   -0.602813
     11          1           0       -1.889515   -0.648282   -2.046669
     12          1           0       -2.869252    0.833667   -1.922177
     13          1           0       -3.207923    0.656163    1.870408
     14          1           0       -3.641780    1.646410    0.453663
     15          1           0       -1.017510    1.399819    1.549724
     16          1           0       -4.357589   -1.280723    0.724258
     17          1           0       -3.820021   -1.806818   -0.905261
     18          1           0       -0.688187   -0.672037    0.815930
     19          1           0       -1.460777   -2.050953   -0.044062
     20          8           0        1.716637    1.836546   -1.026727
     21          6           0        2.853580    1.010543   -0.884879
     22          6           0        2.626234   -0.206259    0.040520
     23          6           0        2.085608    0.238310    1.417179
     24          8           0        0.882987    0.966137    1.335725
     25          6           0        1.644096   -1.178753   -0.610683
     26          9           0        2.144315   -1.642432   -1.809658
     27          6           0        3.957367   -0.932357    0.242301
     28          9           0        4.888990   -0.101498    0.819821
     29          1           0        1.017484    1.399705   -1.549807
     30          1           0        3.641773    1.646381   -0.453810
     31          1           0        3.207891    0.656029   -1.870474
     32          1           0        2.869250    0.833843    1.922093
     33          1           0        1.889556   -0.648122    2.046726
     34          1           0        1.007467    1.607460    0.602701
     35          1           0        0.688196   -0.672109   -0.815896
     36          1           0        1.460777   -2.050943    0.044234
     37          1           0        4.357611   -1.280735   -0.724181
     38          1           0        3.820041   -1.806747    0.905364
 ---------------------------------------------------------------------

 SCF Done:  E(RwB97XD) =  -1092.15880316     a.u. after    1 cycles

 The electronic state is 1-A.
 Alpha  occ. eigenvalues --  -24.81046 -24.81043 -24.80855 -24.80855 -19.27327
 Alpha  occ. eigenvalues --  -19.27327 -19.26626 -19.26624 -10.38109 -10.38109
 Alpha  occ. eigenvalues --  -10.37971 -10.37971 -10.35762 -10.35761 -10.35455
 Alpha  occ. eigenvalues --  -10.35455 -10.32967 -10.32966  -1.29176  -1.29172
 Alpha  occ. eigenvalues --   -1.28993  -1.28992  -1.14923  -1.13893  -1.12273
 Alpha  occ. eigenvalues --   -1.11475  -0.93293  -0.93049  -0.80148  -0.79490
 Alpha  occ. eigenvalues --   -0.78990  -0.78683  -0.78096  -0.78022  -0.68926
 Alpha  occ. eigenvalues --   -0.67918  -0.64644  -0.64643  -0.62732  -0.62345
 Alpha  occ. eigenvalues --   -0.61939  -0.61185  -0.60167  -0.59015  -0.58967
 Alpha  occ. eigenvalues --   -0.58613  -0.57742  -0.57446  -0.55766  -0.55693
 Alpha  occ. eigenvalues --   -0.54975  -0.54809  -0.53242  -0.52907  -0.52238
 Alpha  occ. eigenvalues --   -0.51885  -0.50582  -0.49986  -0.48164  -0.47819
 Alpha  occ. eigenvalues --   -0.46938  -0.45396  -0.45049  -0.44546  -0.43842
 Alpha  occ. eigenvalues --   -0.43784  -0.42223  -0.42011  -0.41136  -0.40356
 Alpha  occ. eigenvalues --   -0.37930  -0.36752  -0.36612  -0.36265
 Alpha virt. eigenvalues --    0.11745   0.12652   0.13304   0.13892   0.15791
 Alpha virt. eigenvalues --    0.16050   0.16245   0.16730   0.17738   0.18865
 Alpha virt. eigenvalues --    0.19617   0.19699   0.20886   0.21302   0.21587

 Mulliken charges:
               1
     1  O   -0.533618
     2  C    0.082146
     3  C   -0.435247
     4  C    0.049776
     5  O   -0.526105
     6  C    0.153646
     7  F   -0.272863
     8  C    0.081549
     9  F   -0.279159
    10  H    0.343492
    11  H    0.108108
    12  H    0.124316
    13  H    0.122481
    14  H    0.131553
    15  H    0.362869
    16  H    0.125746
    17  H    0.106164
    18  H    0.146177
    19  H    0.108969
    20  O   -0.526105
    21  C    0.049777
    22  C   -0.435248
    23  C    0.082146
    24  O   -0.533617
    25  C    0.081555
    26  F   -0.279158
    27  C    0.153647
    28  F   -0.272863
    29  H    0.362869
    30  H    0.131552
    31  H    0.122480
    32  H    0.124316
    33  H    0.108108
    34  H    0.343490
    35  H    0.146172
    36  H    0.108969
    37  H    0.125746
    38  H    0.106164
 Sum of Mulliken charges =  -0.00000

 Dipole moment (field-independent basis, Debye):
    X=             -0.0000    Y=             -2.5129    Z=              0.0001  Tot=              2.5129
  Exact polarizability: 137.188   0.000 109.712  -0.484   0.000 110.039
 Approx polarizability: 130.164   0.000 124.039   0.001   0.000 124.303
   1 Symmetry operations used in ECPInt.
 ECPInt:  NShTT=   11026 NPrTT=   44250 LenC2=   10229 LenP2D=   28613.
 LDataN:  DoStor=T MaxTD1= 6 Len=  172
 Calling FoFJK, ICntrl=    100127 FMM=F ISym2X=0 I1Cent= 0 IOpClX= 0 NMat=1 NMatS=1 NMatT=0.
 Full mass-weighted force constant matrix:
 Low frequencies ---   -5.8408   -3.6475   -2.1912   -0.0004    0.0002    0.0010
 Low frequencies ---   31.1374   48.2900   48.3547
 Diagonal vibrational polarizability:

                      1                      2                      3
                      A                      A                      A
 Frequencies --     31.1306                48.2887                48.3535
 Red. masses --      6.8652                 6.1976                 7.2809
 Frc consts  --      0.0039                 0.0085                 0.0100
 IR Inten    --      0.1607                 0.5265                 3.2051

                      4                      5                      6
                      A                      A                      A
 Frequencies --     56.8481                87.4200                89.8157
 Red. masses --      6.7593                 7.6378                 4.2918
 Frc consts  --      0.0129                 0.0344                 0.0204
 IR Inten    --      1.2436                 0.1857                 5.0085

                      7                      8                      9
                      A                      A                      A
 Frequencies --     99.9139               110.6913               125.8370
 Red. masses --      6.6137                 3.8660                 4.7341
 Frc consts  --      0.0389                 0.0279                 0.0442
 IR Inten    --      0.1686                 9.1879                 3.0882

                     10                     11                     12
                      A                      A                      A
 Frequencies --    132.9298               157.6414               168.4926
 Red. masses --      6.7087                 4.6535                 7.0253
 Frc consts  --      0.0698                 0.0681                 0.1175
 IR Inten    --      3.8671                 3.8416                 6.8605

                     13                     14                     15
                      A                      A                      A
 Frequencies --    180.9055               198.5308               223.0567
 Red. masses --      6.6949                 4.8926                 2.4152
 Frc consts  --      0.1291                 0.1136                 0.0708
 IR Inten    --      4.9883                 1.5721                 8.1298

                     16                     17                     18
                      A                      A                      A
 Frequencies --    230.9128               256.0942               272.6079
 Red. masses --      2.5991                 3.8640                 4.2596
 Frc consts  --      0.0817                 0.1493                 0.1865
 IR Inten    --      0.0169                 0.4161                 4.1375

                     19                     20                     21
                      A                      A                      A
 Frequencies --    302.4836               303.2729               334.1892
 Red. masses --      3.6433                 3.4818                 4.0175
 Frc consts  --      0.1964                 0.1887                 0.2644
 IR Inten    --      0.8658                 6.0318                21.6702

                     22                     23                     24
                      A                      A                      A
 Frequencies --    336.1822               349.6658               357.9432
 Red. masses --      4.7421                 2.1869                 2.4652
 Frc consts  --      0.3158                 0.1575                 0.1861
 IR Inten    --      0.0651                 0.1444                19.2953

                     25                     26                     27
                      A                      A                      A
 Frequencies --    390.5206               391.8186               459.1253
 Red. masses --      3.9974                 3.9092                 3.3798
 Frc consts  --      0.3592                 0.3536                 0.4198
 IR Inten    --      2.6744                 0.7290                 0.9582

                     28                     29                     30
                      A                      A                      A
 Frequencies --    460.4909               576.7551               582.1521
 Red. masses --      3.4318                 2.7682                 3.6620
 Frc consts  --      0.4288                 0.5425                 0.7312
 IR Inten    --      5.9240                39.0187                 0.8750

                     31                     32                     33
                      A                      A                      A
 Frequencies --    588.8878               605.0218               632.5695
 Red. masses --      1.0991                 1.2680                 3.9432
 Frc consts  --      0.2246                 0.2735                 0.9296
 IR Inten    --      9.0545               434.9298                61.6591

                     34                     35                     36
                      A                      A                      A
 Frequencies --    635.8909               760.4994               781.3348
 Red. masses --      4.4341                 1.3988                 2.9458
 Frc consts  --      1.0564                 0.4767                 1.0596
 IR Inten    --      2.5648                37.5215                26.7589

                     37                     38                     39
                      A                      A                      A
 Frequencies --    797.9770               874.1389               923.1834
 Red. masses --      2.0921                 1.2269                 1.8619
 Frc consts  --      0.7849                 0.5523                 0.9349
 IR Inten    --     31.4136               220.4458                 0.2958

                     40                     41                     42
                      A                      A                      A
 Frequencies --    924.2240               938.0140               939.7601
 Red. masses --      1.8653                 1.7214                 1.6795
 Frc consts  --      0.9388                 0.8924                 0.8739
 IR Inten    --      7.9771                28.1582                16.3502

                     43                     44                     45
                      A                      A                      A
 Frequencies --    965.4038               977.9617              1014.3829
 Red. masses --      1.6098                 1.5246                 1.6893
 Frc consts  --      0.8840                 0.8591                 1.0241
 IR Inten    --     14.9199                17.3746                17.3974

                     46                     47                     48
                      A                      A                      A
 Frequencies --   1015.5470              1103.7491              1108.0816
 Red. masses --      1.6538                 6.0303                 6.5195
 Frc consts  --      1.0049                 4.3284                 4.7164
 IR Inten    --      1.9718               157.8234                 8.0995

                     49                     50                     51
                      A                      A                      A
 Frequencies --   1118.3125              1119.9359              1125.7864
 Red. masses --      5.2329                 5.6731                 5.9575
 Frc consts  --      3.8559                 4.1923                 4.4486
 IR Inten    --     64.0134                37.3329                22.0261

                     52                     53                     54
                      A                      A                      A
 Frequencies --   1127.5396              1144.7321              1152.9186
 Red. masses --      5.8109                 5.2758                 4.1421
 Frc consts  --      4.3527                 4.0733                 3.2439
 IR Inten    --    144.7226               206.6699                21.7528

                     55                     56                     57
                      A                      A                      A
 Frequencies --   1188.0794              1193.5413              1214.8653
 Red. masses --      1.6845                 1.6406                 1.8322
 Frc consts  --      1.4009                 1.3770                 1.5932
 IR Inten    --      0.0073                40.9526               144.4455

                     58                     59                     60
                      A                      A                      A
 Frequencies --   1230.9798              1232.7704              1233.9538
 Red. masses --      2.1714                 2.0003                 2.3032
 Frc consts  --      1.9386                 1.7911                 2.0663
 IR Inten    --     31.7132                 4.2374                 6.9894

                     61                     62                     63
                      A                      A                      A
 Frequencies --   1260.5048              1270.2382              1297.3024
 Red. masses --      1.1462                 1.0997                 1.1563
 Frc consts  --      1.0730                 1.0454                 1.1466
 IR Inten    --     29.8875                 5.8905                 0.4852

                     64                     65                     66
                      A                      A                      A
 Frequencies --   1304.4212              1323.3704              1328.6162
 Red. masses --      1.1515                 1.4596                 1.3799
 Frc consts  --      1.1544                 1.5061                 1.4351
 IR Inten    --      1.9719                22.0641                37.3453

                     67                     68                     69
                      A                      A                      A
 Frequencies --   1355.8308              1357.9761              1391.9699
 Red. masses --      1.5601                 1.5024                 1.2400
 Frc consts  --      1.6897                 1.6324                 1.4156
 IR Inten    --      1.3332                 1.9032                 0.4476

                     70                     71                     72
                      A                      A                      A
 Frequencies --   1392.1768              1423.2767              1428.9726
 Red. masses --      1.2381                 1.2159                 1.1933
 Frc consts  --      1.4138                 1.4512                 1.4356
 IR Inten    --      6.0917                14.6496                77.6580

                     73                     74                     75
                      A                      A                      A
 Frequencies --   1437.1174              1441.6983              1444.9289
 Red. masses --      1.4079                 1.4024                 1.4861
 Frc consts  --      1.7132                 1.7174                 1.8281
 IR Inten    --     20.7653                16.6131                56.2042

                     76                     77                     78
                      A                      A                      A
 Frequencies --   1447.4537              1453.5774              1457.6947
 Red. masses --      1.4117                 1.3343                 1.3746
 Frc consts  --      1.7426                 1.6611                 1.7210
 IR Inten    --      2.8522                14.6866                 0.1397

                     79                     80                     81
                      A                      A                      A
 Frequencies --   1502.9801              1504.6056              1516.8023
 Red. masses --      1.0940                 1.0798                 1.0720
 Frc consts  --      1.4560                 1.4403                 1.4531
 IR Inten    --     11.8554                 3.9115                24.1735

                     82                     83                     84
                      A                      A                      A
 Frequencies --   1519.9808              1520.0541              1520.5704
 Red. masses --      1.0861                 1.0922                 1.0928
 Frc consts  --      1.4784                 1.4868                 1.4887
 IR Inten    --      1.9163                 1.0782                 0.5031

                     85                     86                     87
                      A                      A                      A
 Frequencies --   1530.9439              1532.0726              1552.5549
 Red. masses --      1.1564                 1.0959                 1.0719
 Frc consts  --      1.5968                 1.5155                 1.5223
 IR Inten    --    130.3486                 8.2345                 1.6128

                     88                     89                     90
                      A                      A                      A
 Frequencies --   1575.0060              3035.5921              3035.9913
 Red. masses --      1.1370                 1.0605                 1.0606
 Frc consts  --      1.6618                 5.7576                 5.7596
 IR Inten    --     17.1073                86.1113                 0.4241

                     91                     92                     93
                      A                      A                      A
 Frequencies --   3047.3854              3048.0680              3049.9004
 Red. masses --      1.0647                 1.0637                 1.0646
 Frc consts  --      5.8254                 5.8226                 5.8346
 IR Inten    --      6.2086                20.9254                55.6749

                     94                     95                     96
                      A                      A                      A
 Frequencies --   3050.6926              3050.7330              3052.5737
 Red. masses --      1.0669                 1.0662                 1.0654
 Frc consts  --      5.8504                 5.8464                 5.8491
 IR Inten    --      7.1915                42.1573                57.7781

                     97                     98                     99
                      A                      A                      A
 Frequencies --   3094.8111              3094.8872              3125.2952
 Red. masses --      1.1091                 1.1092                 1.1077
 Frc consts  --      6.2591                 6.2594                 6.3748
 IR Inten    --     14.9257                40.4056                 0.9758

                    100                    101                    102
                      A                      A                      A
 Frequencies --   3125.3284              3140.8746              3140.9144
 Red. masses --      1.1077                 1.1035                 1.1035
 Frc consts  --      6.3749                 6.4137                 6.4138
 IR Inten    --     39.5913                 7.9076                14.0547

                    103                    104                    105
                      A                      A                      A
 Frequencies --   3145.6212              3149.9335              3492.1413
 Red. masses --      1.1058                 1.1041                 1.0669
 Frc consts  --      6.4467                 6.4543                 7.6659
 IR Inten    --      2.1542                 1.2413               139.0931

                    106                    107                    108
                      A                      A                      A
 Frequencies --   3499.6966              3629.8882              3631.6206
 Red. masses --      1.0662                 1.0668                 1.0675
 Frc consts  --      7.6937                 8.2819                 8.2954
 IR Inten    --    382.3548                38.7854               554.8904

                           ! Non-Optimized Parameters !
 Normal termination of Gaussian 16 at Tue Aug  9 18:22:25 2022.
