 Gaussian 16, Revision B.01,
 Gaussian 16:  ES64L-G16RevB.01 20-Dec-2017

 --------------------------------------------------------------
 #T wB97XD//def2svpp Volume=tight Geom=AllCheckpoint Guess=Read
 --------------------------------------------------------------
 Structure from the checkpoint file:  "monomer.chk"
 -------
 Monomer
 -------
 Charge =  0 Multiplicity = 1

                         Standard orientation:
 ---------------------------------------------------------------------
 Center     Atomic      Atomic             Coordinates (Angstroms)
 Number     Number       Type             X           Y           Z
 ---------------------------------------------------------------------
      1          6           0       -1.033714   -0.726923    1.260711
      2          6           0       -0.590368    0.028172    0.000000
      3          6           0       -1.033716   -0.726915   -1.260715
      4          7           0       -1.205850    1.342852    0.000005
      5          6           0        0.942406    0.137622   -0.000000
      6          8           0        1.556390   -1.056565   -0.000001
      7          8           0        1.557958    1.171311   -0.000000
      8          1           0       -0.709203   -0.194588    2.172763
      9          1           0       -0.613286   -1.744530    1.286941
     10          1           0       -2.134369   -0.785704    1.272054
     11          1           0       -0.709203   -0.194576   -2.172764
     12          1           0       -2.134371   -0.785693   -1.272059
     13          1           0       -0.613290   -1.744523   -1.286950
     14          1           0       -0.891470    1.873831   -0.813226
     15          1           0       -0.891467    1.873826    0.813237
     16          1           0        2.515182   -0.887724   -0.000001
 ---------------------------------------------------------------------

 SCF Done:  E(RwB97XD) =  -362.659135691     A.U. after    1 cycles

 The electronic state is 1-A.
 Alpha  occ. eigenvalues --  -19.30762 -19.25003 -14.41597 -10.42717 -10.34701
 Alpha  occ. eigenvalues --  -10.29015 -10.29014  -1.20876  -1.11150  -0.99222
 Alpha  occ. eigenvalues --   -0.85919  -0.78711  -0.75094  -0.66418  -0.59865
 Alpha  occ. eigenvalues --   -0.58089  -0.57536  -0.54396  -0.53458  -0.50983
 Alpha  occ. eigenvalues --   -0.47328  -0.46866  -0.46720  -0.44832  -0.42921
 Alpha  occ. eigenvalues --   -0.41234  -0.36380  -0.32805
 Alpha virt. eigenvalues --    0.08501   0.12555   0.14954   0.18359   0.18827
 Alpha virt. eigenvalues --    0.19890   0.20911   0.21245   0.25454   0.25728
 Alpha virt. eigenvalues --    0.26908   0.30547   0.32122   0.33112   0.40031

 Mulliken charges:
               1
     1  C   -0.267027
     2  C   -0.170557
     3  C   -0.267027
     4  N   -0.462071
     5  C    0.208791
     6  O   -0.372088
     7  O   -0.230052
     8  H    0.116050
     9  H    0.134374
    10  H    0.137119
    11  H    0.116050
    12  H    0.137119
    13  H    0.134374
    14  H    0.223403
    15  H    0.223403
    16  H    0.338140
 Sum of Mulliken charges =  -0.00000

 Dipole moment (field-independent basis, Debye):
    X=              0.6974    Y=             -1.2254    Z=             -0.0000  Tot=              1.4100
 Evaluate density.
 Using the total density.
 Monte-Carlo method of calculating molar volume:
 based on  0.001 e/bohr**3 density envelope.
 Number of points per bohr**3 =  100 CutOff= 1.00D-04
 Using the SCF density.
 There are      1680 points.  Will hold      1680 in memory.
 LenV=  1048348228 MDV=  1048576000.
 Box volume = 4742.959 fraction occupied=0.193
 Integrated density= 6.8165726720785770D+01 error= 1.2165726720785770D+01

 Normal termination of Gaussian 16 at Tue Apr  2 13:49:00 2024.
