 Gaussian 16, Revision B.01,
 Gaussian 16:  ES64L-G16RevB.01 20-Dec-2017

 ----------------------------------------------------------------------
 #T wB97XD/def2svpp opt=tight freq int(grid=ultrafine) scf=(verytight,q
 c) Volume=tight
 ----------------------------------------------------------------------
 -----
 Dimer
 -----
 Symbolic Z-matrix:
 Charge =  0 Multiplicity = 1

 SCF Done:  E(RwB97XD) =  -709.246039239     a.u. after    6 cycles
 SCF Done:  E(RwB97XD) =  -709.253831286     a.u. after    6 cycles
 SCF Done:  E(RwB97XD) =  -709.254097225     a.u. after    5 cycles
 SCF Done:  E(RwB97XD) =  -709.254071031     a.u. after    7 cycles
 SCF Done:  E(RwB97XD) =  -709.254124021     a.u. after    7 cycles
 SCF Done:  E(RwB97XD) =  -709.254411419     a.u. after    5 cycles
 SCF Done:  E(RwB97XD) =  -709.254568586     a.u. after    6 cycles
 SCF Done:  E(RwB97XD) =  -709.254635595     a.u. after    4 cycles
 SCF Done:  E(RwB97XD) =  -709.254653693     a.u. after    2 cycles
 SCF Done:  E(RwB97XD) =  -709.254724006     a.u. after    4 cycles
 SCF Done:  E(RwB97XD) =  -709.254880940     a.u. after    2 cycles
 SCF Done:  E(RwB97XD) =  -709.254880945     a.u. after    2 cycles
 SCF Done:  E(RwB97XD) =  -709.254880951     a.u. after    2 cycles
 SCF Done:  E(RwB97XD) =  -709.254880960     a.u. after    2 cycles
 SCF Done:  E(RwB97XD) =  -709.254880967     a.u. after    2 cycles
 SCF Done:  E(RwB97XD) =  -709.254880971     a.u. after    2 cycles
 SCF Done:  E(RwB97XD) =  -709.254880971     a.u. after    2 cycles
 SCF Done:  E(RwB97XD) =  -709.254880970     a.u. after    2 cycles
 SCF Done:  E(RwB97XD) =  -709.254880970     a.u. after    2 cycles
 Optimization completed.
    -- Stationary point found.
 Normal termination of Gaussian 16 at Fri Feb  3 17:54:31 2023.

 ---------------------------------------------------------------------
 #T Geom=AllCheck Guess=TCheck SCRF=Check GenChk RwB97XD/def2SVPP Freq
 ---------------------------------------------------------------------
 Structure from the checkpoint file:  "34.chk"
 -----
 Dimer
 -----
 Charge =  0 Multiplicity = 1

                         Standard orientation:
 ---------------------------------------------------------------------
 Center     Atomic      Atomic             Coordinates (Angstroms)
 Number     Number       Type             X           Y           Z
 ---------------------------------------------------------------------
      1          6           0       -1.102182   -1.591784    1.964798
      2          6           0       -1.601252   -0.393594    1.156983
      3          6           0       -2.621905   -0.693256    0.026705
      4          6           0       -1.869624   -1.360799   -1.139640
      5          6           0       -3.676046   -1.692387    0.537221
      6          6           0       -3.313099    0.653112   -0.451346
      7          6           0       -2.283895    1.784080   -0.637370
      8          6           0       -4.033571    0.464736   -1.799858
      9          6           0       -4.359761    1.136341    0.570081
     10          1           0       -1.900484   -2.033690    2.584433
     11          1           0       -0.294517   -1.275980    2.647835
     12          1           0       -0.694513   -2.393016    1.324481
     13          1           0       -0.728610    0.111155    0.708647
     14          1           0       -2.035834    0.331278    1.868085
     15          1           0       -1.264660   -2.209621   -0.778106
     16          1           0       -1.179601   -0.661750   -1.643130
     17          1           0       -2.562657   -1.760763   -1.898436
     18          1           0       -3.226734   -2.689881    0.680019
     19          1           0       -4.505506   -1.813232   -0.180194
     20          1           0       -4.107521   -1.383584    1.504590
     21          1           0       -1.446664    1.484927   -1.290519
     22          1           0       -1.860758    2.124865    0.322061
     23          1           0       -2.769468    2.657514   -1.107897
     24          1           0       -4.726835   -0.394005   -1.789566
     25          1           0       -3.322968    0.318992   -2.630509
     26          1           0       -4.630194    1.364204   -2.034390
     27          1           0       -3.947708    1.206686    1.591641
     28          1           0       -5.239920    0.472663    0.604180
     29          1           0       -4.719425    2.142902    0.291743
     30          6           0        1.348458    2.077458    1.677872
     31          6           0        2.116324    0.799298    1.340385
     32          6           0        2.731163    0.710047   -0.082629
     33          6           0        1.707496    1.208999   -1.117880
     34          6           0        3.954414    1.642982   -0.145669
     35          6           0        3.149060   -0.788344   -0.397115
     36          6           0        1.914083   -1.654555   -0.707736
     37          6           0        4.089050   -0.864984   -1.614801
     38          6           0        3.885450   -1.432362    0.792950
     39          1           0        1.960202    2.985601    1.537529
     40          1           0        1.030498    2.056554    2.734576
     41          1           0        0.438180    2.187715    1.065361
     42          1           0        1.432769   -0.053211    1.496244
     43          1           0        2.926054    0.675837    2.080623
     44          1           0        1.551295    2.296784   -1.021740
     45          1           0        0.726014    0.722665   -0.991465
     46          1           0        2.047234    1.022042   -2.150804
     47          1           0        3.690657    2.652369    0.213780
     48          1           0        4.328627    1.757973   -1.176596
     49          1           0        4.787354    1.278576    0.480299
     50          1           0        1.455974   -1.391113   -1.675636
     51          1           0        1.134830   -1.564442    0.067792
     52          1           0        2.203748   -2.719183   -0.761680
     53          1           0        5.082861   -0.439155   -1.397095
     54          1           0        3.678861   -0.340367   -2.494980
     55          1           0        4.241255   -1.920033   -1.904240
     56          1           0        3.215554   -1.608706    1.650729
     57          1           0        4.732268   -0.816570    1.142523
     58          1           0        4.295358   -2.412933    0.492100
 ---------------------------------------------------------------------

 SCF Done:  E(RwB97XD) =  -709.254880970     a.u. after    1 cycles

 The electronic state is 1-A.
 Alpha  occ. eigenvalues --  -10.30511 -10.30442 -10.30430 -10.30369 -10.28364
 Alpha  occ. eigenvalues --  -10.28221 -10.27961 -10.27793 -10.27557 -10.27555
 Alpha  occ. eigenvalues --  -10.27553 -10.27525 -10.27522 -10.27498 -10.27484
 Alpha  occ. eigenvalues --  -10.27484 -10.27467 -10.27446  -0.93268  -0.93136
 Alpha  occ. eigenvalues --   -0.86789  -0.86659  -0.81786  -0.81467  -0.78371
 Alpha  occ. eigenvalues --   -0.78009  -0.76884  -0.76783  -0.75366  -0.75147
 Alpha  occ. eigenvalues --   -0.71793  -0.71681  -0.65953  -0.65820  -0.58995
 Alpha  occ. eigenvalues --   -0.58801  -0.56669  -0.56610  -0.55046  -0.53719
 Alpha  occ. eigenvalues --   -0.53524  -0.53081  -0.52130  -0.51881  -0.51696
 Alpha  occ. eigenvalues --   -0.51397  -0.48783  -0.48458  -0.48361  -0.48267
 Alpha  occ. eigenvalues --   -0.46845  -0.46712  -0.45606  -0.45432  -0.45185
 Alpha  occ. eigenvalues --   -0.45065  -0.44502  -0.44374  -0.44305  -0.44171
 Alpha  occ. eigenvalues --   -0.43884  -0.43726  -0.43141  -0.42655  -0.41902
 Alpha  occ. eigenvalues --   -0.41688  -0.41040  -0.40967  -0.38125  -0.37993
 Alpha  occ. eigenvalues --   -0.37533  -0.37397  -0.37265  -0.37188
 Alpha virt. eigenvalues --    0.11462   0.13334   0.14462   0.14796   0.16129
 Alpha virt. eigenvalues --    0.16774   0.17182   0.17330   0.17563   0.17824
 Alpha virt. eigenvalues --    0.18011   0.18603   0.18904   0.19525   0.19745

 Mulliken charges:
               1
     1  C   -0.328214
     2  C   -0.240570
     3  C   -0.178346
     4  C   -0.303584
     5  C   -0.286036
     6  C   -0.204966
     7  C   -0.303895
     8  C   -0.273352
     9  C   -0.276975
    10  H    0.121715
    11  H    0.130441
    12  H    0.131216
    13  H    0.131413
    14  H    0.104516
    15  H    0.121741
    16  H    0.127866
    17  H    0.117843
    18  H    0.118567
    19  H    0.116421
    20  H    0.119607
    21  H    0.122628
    22  H    0.137726
    23  H    0.111492
    24  H    0.115612
    25  H    0.117093
    26  H    0.111033
    27  H    0.117618
    28  H    0.117345
    29  H    0.111224
    30  C   -0.326623
    31  C   -0.216343
    32  C   -0.178725
    33  C   -0.333204
    34  C   -0.281600
    35  C   -0.201343
    36  C   -0.304349
    37  C   -0.274014
    38  C   -0.271000
    39  H    0.117500
    40  H    0.117292
    41  H    0.136987
    42  H    0.118395
    43  H    0.102424
    44  H    0.122489
    45  H    0.156129
    46  H    0.116165
    47  H    0.114775
    48  H    0.117405
    49  H    0.114084
    50  H    0.122498
    51  H    0.127163
    52  H    0.110912
    53  H    0.117450
    54  H    0.115037
    55  H    0.111016
    56  H    0.116828
    57  H    0.114608
    58  H    0.110868
 Sum of Mulliken charges =  -0.00000

 Dipole moment (field-independent basis, Debye):
    X=             -0.0948    Y=             -0.0114    Z=              0.0979  Tot=              0.1367
  Exact polarizability: 212.946  -3.299 187.823  -0.236  -0.155 179.644
 Approx polarizability: 205.543  -0.673 204.965  -0.129  -0.220 202.919
   1 Symmetry operations used in ECPInt.
 ECPInt:  NShTT=   17766 NPrTT=   71230 LenC2=   16816 LenP2D=   47116.
 LDataN:  DoStor=T MaxTD1= 6 Len=  172
 Calling FoFJK, ICntrl=    100127 FMM=F ISym2X=0 I1Cent= 0 IOpClX= 0 NMat=1 NMatS=1 NMatT=0.
 Full mass-weighted force constant matrix:
 Low frequencies ---   -7.9767   -4.7359   -2.7748   -0.0007    0.0006    0.0008
 Low frequencies ---   11.1329   31.1103   35.5622
 Diagonal vibrational polarizability:

                      1                      2                      3
                      A                      A                      A
 Frequencies --     10.4197                31.0599                35.4940
 Red. masses --      3.0398                 2.9481                 2.8278
 Frc consts  --      0.0002                 0.0017                 0.0021
 IR Inten    --      0.0002                 0.0130                 0.0014

                      4                      5                      6
                      A                      A                      A
 Frequencies --     47.4397                58.4111                69.3665
 Red. masses --      3.1328                 3.5606                 3.9857
 Frc consts  --      0.0042                 0.0072                 0.0113
 IR Inten    --      0.0036                 0.0058                 0.0168

                      7                      8                      9
                      A                      A                      A
 Frequencies --    117.9328               121.8953               160.0937
 Red. masses --      2.7730                 2.6404                 1.7581
 Frc consts  --      0.0227                 0.0231                 0.0265
 IR Inten    --      0.0087                 0.0199                 0.0111

                     10                     11                     12
                      A                      A                      A
 Frequencies --    168.8295               214.0318               218.5881
 Red. masses --      1.7737                 2.0083                 1.9876
 Frc consts  --      0.0298                 0.0542                 0.0560
 IR Inten    --      0.0227                 0.0083                 0.0336

                     13                     14                     15
                      A                      A                      A
 Frequencies --    251.6648               260.6150               261.5355
 Red. masses --      1.1789                 1.0752                 1.2559
 Frc consts  --      0.0440                 0.0430                 0.0506
 IR Inten    --      0.0226                 0.0186                 0.0405

                     16                     17                     18
                      A                      A                      A
 Frequencies --    265.7070               277.4521               281.4474
 Red. masses --      1.1535                 1.1659                 1.1901
 Frc consts  --      0.0480                 0.0529                 0.0555
 IR Inten    --      0.0369                 0.0006                 0.0250

                     19                     20                     21
                      A                      A                      A
 Frequencies --    296.8194               302.4804               317.5850
 Red. masses --      1.1370                 1.1688                 1.2886
 Frc consts  --      0.0590                 0.0630                 0.0766
 IR Inten    --      0.0313                 0.0477                 0.0200

                     22                     23                     24
                      A                      A                      A
 Frequencies --    320.3080               324.1819               330.2320
 Red. masses --      1.2142                 1.9099                 2.0647
 Frc consts  --      0.0734                 0.1183                 0.1327
 IR Inten    --      0.0778                 0.0049                 0.0011

                     25                     26                     27
                      A                      A                      A
 Frequencies --    331.1460               337.7865               361.6910
 Red. masses --      1.5713                 1.5317                 1.9610
 Frc consts  --      0.1015                 0.1030                 0.1511
 IR Inten    --      0.0517                 0.0219                 0.0166

                     28                     29                     30
                      A                      A                      A
 Frequencies --    363.8501               379.2194               383.2205
 Red. masses --      2.0568                 2.1558                 2.0394
 Frc consts  --      0.1604                 0.1827                 0.1765
 IR Inten    --      0.0003                 0.0194                 0.0633

                     31                     32                     33
                      A                      A                      A
 Frequencies --    387.8354               395.2210               400.7248
 Red. masses --      1.7501                 1.5626                 2.0129
 Frc consts  --      0.1551                 0.1438                 0.1904
 IR Inten    --      0.0579                 0.0206                 0.0102

                     34                     35                     36
                      A                      A                      A
 Frequencies --    404.0472               406.2687               406.4587
 Red. masses --      1.9627                 2.0467                 1.9603
 Frc consts  --      0.1888                 0.1990                 0.1908
 IR Inten    --      0.0260                 0.0621                 0.0263

                     37                     38                     39
                      A                      A                      A
 Frequencies --    407.6331               412.3213               476.2246
 Red. masses --      2.1759                 1.9880                 2.5442
 Frc consts  --      0.2130                 0.1991                 0.3400
 IR Inten    --      0.0549                 0.0227                 0.0110

                     40                     41                     42
                      A                      A                      A
 Frequencies --    476.7568               483.6522               486.4246
 Red. masses --      2.5403                 2.5208                 2.5418
 Frc consts  --      0.3402                 0.3474                 0.3543
 IR Inten    --      0.0642                 0.0188                 0.0167

                     43                     44                     45
                      A                      A                      A
 Frequencies --    530.9905               531.9153               674.2185
 Red. masses --      2.1730                 2.1642                 2.8303
 Frc consts  --      0.3610                 0.3608                 0.7580
 IR Inten    --      0.3302                 0.3251                 0.3982

                     46                     47                     48
                      A                      A                      A
 Frequencies --    674.3568               793.5155               794.8138
 Red. masses --      2.8251                 1.4882                 1.5836
 Frc consts  --      0.7570                 0.5521                 0.5894
 IR Inten    --      0.4404                 2.8527                 3.4930

                     49                     50                     51
                      A                      A                      A
 Frequencies --    814.0656               816.7132               888.5263
 Red. masses --      1.8048                 1.6351                 1.8771
 Frc consts  --      0.7047                 0.6426                 0.8731
 IR Inten    --      2.3815                 3.1399                 0.3334

                     52                     53                     54
                      A                      A                      A
 Frequencies --    890.1385               944.3316               949.0683
 Red. masses --      1.8932                 1.7247                 1.7291
 Frc consts  --      0.8838                 0.9062                 0.9176
 IR Inten    --      0.1788                 0.4464                 1.3781

                     55                     56                     57
                      A                      A                      A
 Frequencies --    953.5685               954.8025               955.9227
 Red. masses --      1.5280                 1.5558                 1.6313
 Frc consts  --      0.8186                 0.8357                 0.8783
 IR Inten    --      0.5037                 0.7501                 0.7307

                     58                     59                     60
                      A                      A                      A
 Frequencies --    958.0739               961.1934               963.4267
 Red. masses --      1.6127                 1.5130                 1.5111
 Frc consts  --      0.8722                 0.8236                 0.8264
 IR Inten    --      0.8420                 1.2793                 1.1089

                     61                     62                     63
                      A                      A                      A
 Frequencies --    972.4369               976.0582              1012.6956
 Red. masses --      1.2386                 1.2337                 1.2326
 Frc consts  --      0.6901                 0.6925                 0.7448
 IR Inten    --      0.0287                 0.1279                 0.8067

                     64                     65                     66
                      A                      A                      A
 Frequencies --   1014.4563              1035.0043              1036.1206
 Red. masses --      1.2299                 1.4219                 1.4177
 Frc consts  --      0.7458                 0.8974                 0.8967
 IR Inten    --      0.2680                 1.6635                 0.4959

                     67                     68                     69
                      A                      A                      A
 Frequencies --   1046.8939              1049.0461              1052.7096
 Red. masses --      1.3534                 1.3406                 1.8259
 Frc consts  --      0.8740                 0.8693                 1.1922
 IR Inten    --      0.3425                 0.3888                 5.0918

                     70                     71                     72
                      A                      A                      A
 Frequencies --   1056.1250              1080.8717              1084.3247
 Red. masses --      1.8989                 1.4276                 1.4408
 Frc consts  --      1.2479                 0.9827                 0.9981
 IR Inten    --      4.1326                 1.7637                 0.4455

                     73                     74                     75
                      A                      A                      A
 Frequencies --   1095.5022              1097.3452              1196.2371
 Red. masses --      1.8299                 1.7743                 2.0214
 Frc consts  --      1.2939                 1.2588                 1.7042
 IR Inten    --      1.7394                 0.8848                27.0578

                     76                     77                     78
                      A                      A                      A
 Frequencies --   1197.1652              1218.7167              1221.7091
 Red. masses --      2.0116                 2.3652                 2.3865
 Frc consts  --      1.6986                 2.0698                 2.0987
 IR Inten    --     15.8385                 3.5478                 2.7473

                     79                     80                     81
                      A                      A                      A
 Frequencies --   1230.2488              1231.4860              1278.2211
 Red. masses --      2.5457                 2.5082                 2.4680
 Frc consts  --      2.2701                 2.2412                 2.3758
 IR Inten    --      4.6094                 4.8371                 0.9437

                     82                     83                     84
                      A                      A                      A
 Frequencies --   1279.8439              1282.1491              1282.5257
 Red. masses --      2.4575                 2.5712                 2.5814
 Frc consts  --      2.3717                 2.4903                 2.5017
 IR Inten    --      1.5216                 0.7346                 1.2717

                     85                     86                     87
                      A                      A                      A
 Frequencies --   1294.1832              1294.7503              1344.0259
 Red. masses --      3.1085                 3.0811                 1.2807
 Frc consts  --      3.0675                 3.0431                 1.3631
 IR Inten    --      1.2320                 0.0856                 0.4097

                     88                     89                     90
                      A                      A                      A
 Frequencies --   1347.6973              1381.7963              1384.7745
 Red. masses --      1.2618                 1.4337                 1.4142
 Frc consts  --      1.3503                 1.6129                 1.5978
 IR Inten    --      0.0867                 1.0140                 0.5602

                     91                     92                     93
                      A                      A                      A
 Frequencies --   1406.5196              1408.1107              1411.4477
 Red. masses --      1.3046                 1.3074                 1.2933
 Frc consts  --      1.5206                 1.5274                 1.5180
 IR Inten    --      5.5870                 7.9512                 7.2531

                     94                     95                     96
                      A                      A                      A
 Frequencies --   1412.5859              1413.8855              1415.2435
 Red. masses --      1.2506                 1.2503                 1.2939
 Frc consts  --      1.4703                 1.4726                 1.5269
 IR Inten    --     22.4393                 8.1157                 4.2250

                     97                     98                     99
                      A                      A                      A
 Frequencies --   1424.0063              1424.9681              1429.6479
 Red. masses --      1.3051                 1.3139                 1.2474
 Frc consts  --      1.5593                 1.5719                 1.5021
 IR Inten    --      8.9721                 3.8930                22.0283

                    100                    101                    102
                      A                      A                      A
 Frequencies --   1430.1170              1442.3761              1444.8001
 Red. masses --      1.2651                 1.2265                 1.2262
 Frc consts  --      1.5245                 1.5034                 1.5080
 IR Inten    --      2.3869                 4.6084                 3.8147

                    103                    104                    105
                      A                      A                      A
 Frequencies --   1474.1579              1474.7871              1476.5998
 Red. masses --      1.0637                 1.0580                 1.0477
 Frc consts  --      1.3619                 1.3558                 1.3459
 IR Inten    --      1.1631                 1.1527                 4.4001

                    106                    107                    108
                      A                      A                      A
 Frequencies --   1478.5994              1479.9700              1481.0062
 Red. masses --      1.0500                 1.0494                 1.0519
 Frc consts  --      1.3525                 1.3542                 1.3594
 IR Inten    --      2.4068                 3.2326                 0.8731

                    109                    110                    111
                      A                      A                      A
 Frequencies --   1484.7706              1485.6175              1486.3677
 Red. masses --      1.0513                 1.0515                 1.0522
 Frc consts  --      1.3656                 1.3673                 1.3696
 IR Inten    --      1.0626                 0.2961                 1.3628

                    112                    113                    114
                      A                      A                      A
 Frequencies --   1488.7356              1489.0368              1494.6926
 Red. masses --      1.0566                 1.0477                 1.0437
 Frc consts  --      1.3797                 1.3686                 1.3738
 IR Inten    --      0.9478                 2.9498                 5.9239

                    115                    116                    117
                      A                      A                      A
 Frequencies --   1497.1489              1499.0629              1502.2658
 Red. masses --      1.0531                 1.0543                 1.0468
 Frc consts  --      1.3907                 1.3959                 1.3919
 IR Inten    --      9.4373                 7.6612                17.4996

                    118                    119                    120
                      A                      A                      A
 Frequencies --   1503.7862              1508.4453              1510.6407
 Red. masses --      1.0467                 1.0536                 1.0501
 Frc consts  --      1.3946                 1.4125                 1.4119
 IR Inten    --     15.4631                22.6736                12.0042

                    121                    122                    123
                      A                      A                      A
 Frequencies --   1512.4526              1513.6806              1515.0994
 Red. masses --      1.0498                 1.0587                 1.0551
 Frc consts  --      1.4149                 1.4292                 1.4271
 IR Inten    --      9.1858                 2.5300                 1.2073

                    124                    125                    126
                      A                      A                      A
 Frequencies --   1517.7135              1518.3074              1520.3749
 Red. masses --      1.0552                 1.0579                 1.0552
 Frc consts  --      1.4321                 1.4369                 1.4371
 IR Inten    --      6.4476                 7.3488                 8.0309

                    127                    128                    129
                      A                      A                      A
 Frequencies --   1525.9712              1528.7797              3030.7370
 Red. masses --      1.0627                 1.0618                 1.0381
 Frc consts  --      1.4580                 1.4621                 5.6181
 IR Inten    --      2.8549                 4.0887                18.1484

                    130                    131                    132
                      A                      A                      A
 Frequencies --   3031.1808              3032.6654              3032.8599
 Red. masses --      1.0382                 1.0383                 1.0384
 Frc consts  --      5.6202                 5.6264                 5.6276
 IR Inten    --     22.3105                21.3338                12.2942

                    133                    134                    135
                      A                      A                      A
 Frequencies --   3035.5503              3036.6384              3037.9164
 Red. masses --      1.0384                 1.0385                 1.0388
 Frc consts  --      5.6377                 5.6424                 5.6487
 IR Inten    --      7.7466                29.4136                18.6502

                    136                    137                    138
                      A                      A                      A
 Frequencies --   3038.0031              3038.7798              3040.0692
 Red. masses --      1.0390                 1.0389                 1.0384
 Frc consts  --      5.6497                 5.6524                 5.6545
 IR Inten    --     37.4707                38.8736                14.7005

                    139                    140                    141
                      A                      A                      A
 Frequencies --   3043.2390              3046.0552              3053.1319
 Red. masses --      1.0407                 1.0415                 1.0626
 Frc consts  --      5.6786                 5.6934                 5.8362
 IR Inten    --     14.5044                20.9577                25.9820

                    142                    143                    144
                      A                      A                      A
 Frequencies --   3054.5013              3102.3737              3106.8846
 Red. masses --      1.0605                 1.1031                 1.1010
 Frc consts  --      5.8294                 6.2554                 6.2614
 IR Inten    --      3.7045                 9.6503                 6.8520

                    145                    146                    147
                      A                      A                      A
 Frequencies --   3114.0688              3115.0012              3116.4478
 Red. masses --      1.1042                 1.1041                 1.1036
 Frc consts  --      6.3090                 6.3121                 6.3150
 IR Inten    --      1.7827                 1.8476                 5.1862

                    148                    149                    150
                      A                      A                      A
 Frequencies --   3116.7536              3121.0114              3121.4919
 Red. masses --      1.1034                 1.1035                 1.1023
 Frc consts  --      6.3151                 6.3328                 6.3281
 IR Inten    --     16.5624                32.5747               105.1231

                    151                    152                    153
                      A                      A                      A
 Frequencies --   3121.6709              3121.8969              3124.2303
 Red. masses --      1.1020                 1.1037                 1.1041
 Frc consts  --      6.3272                 6.3377                 6.3494
 IR Inten    --     30.9146                 7.5175                 7.5407

                    154                    155                    156
                      A                      A                      A
 Frequencies --   3124.6109              3128.2864              3128.5019
 Red. masses --      1.1042                 1.1035                 1.1045
 Frc consts  --      6.3516                 6.3628                 6.3695
 IR Inten    --      5.9228                27.4460                 6.9809

                    157                    158                    159
                      A                      A                      A
 Frequencies --   3129.6908              3131.4193              3132.9824
 Red. masses --      1.1027                 1.1032                 1.1035
 Frc consts  --      6.3635                 6.3739                 6.3817
 IR Inten    --     43.5092                26.4432                88.8853

                    160                    161                    162
                      A                      A                      A
 Frequencies --   3133.4248              3133.7365              3134.1909
 Red. masses --      1.1038                 1.1041                 1.1040
 Frc consts  --      6.3851                 6.3885                 6.3893
 IR Inten    --     17.3112                72.8312                 8.9417

                    163                    164                    165
                      A                      A                      A
 Frequencies --   3134.5028              3135.8297              3139.0426
 Red. masses --      1.1035                 1.1035                 1.1037
 Frc consts  --      6.3881                 6.3934                 6.4076
 IR Inten    --      8.3405                17.7817                29.0496

                    166                    167                    168
                      A                      A                      A
 Frequencies --   3139.7751              3143.6246              3146.5761
 Red. masses --      1.1034                 1.1024                 1.1021
 Frc consts  --      6.4090                 6.4189                 6.4289
 IR Inten    --     17.4061                13.9618                 8.1545

 Optimization completed.
    -- Stationary point found.
 Normal termination of Gaussian 16 at Fri Feb  3 18:28:53 2023.
