 Gaussian 16, Revision B.01,
 Gaussian 16:  ES64L-G16RevB.01 20-Dec-2017

 ----------------------------------------------------------------------
 #T wB97XD/def2svpp opt=tight freq int(grid=ultrafine) scf=(verytight,q
 c) Volume=tight
 ----------------------------------------------------------------------
 -----
 Dimer
 -----
 Symbolic Z-matrix:
 Charge =  0 Multiplicity = 1

 SCF Done:  E(RwB97XD) =  -617.106701830     a.u. after    7 cycles
 SCF Done:  E(RwB97XD) =  -617.109678702     a.u. after    5 cycles
 SCF Done:  E(RwB97XD) =  -617.109987250     a.u. after    5 cycles
 SCF Done:  E(RwB97XD) =  -617.110211610     a.u. after    5 cycles
 SCF Done:  E(RwB97XD) =  -617.110316464     a.u. after    4 cycles
 SCF Done:  E(RwB97XD) =  -617.110370924     a.u. after    4 cycles
 SCF Done:  E(RwB97XD) =  -617.110387460     a.u. after    3 cycles
 SCF Done:  E(RwB97XD) =  -617.110392095     a.u. after    2 cycles
 SCF Done:  E(RwB97XD) =  -617.110395659     a.u. after    2 cycles
 SCF Done:  E(RwB97XD) =  -617.110401170     a.u. after    3 cycles
 SCF Done:  E(RwB97XD) =  -617.110404451     a.u. after    2 cycles
 SCF Done:  E(RwB97XD) =  -617.110404508     a.u. after    2 cycles
 SCF Done:  E(RwB97XD) =  -617.110404556     a.u. after    2 cycles
 SCF Done:  E(RwB97XD) =  -617.110404611     a.u. after    2 cycles
 SCF Done:  E(RwB97XD) =  -617.110404642     a.u. after    2 cycles
 SCF Done:  E(RwB97XD) =  -617.110404662     a.u. after    2 cycles
 SCF Done:  E(RwB97XD) =  -617.110404675     a.u. after    2 cycles
 SCF Done:  E(RwB97XD) =  -617.110404682     a.u. after    2 cycles
 SCF Done:  E(RwB97XD) =  -617.110404684     a.u. after    2 cycles
 Optimization completed.
    -- Stationary point found.

 1\1\GINC-C262\FOpt\RwB97XD\def2SVPP\C8H20O4\PETERCHAO1\01-Apr-2024\0\\
 #T wB97XD/def2svpp opt=tight freq int(grid=ultrafine) scf=(verytight,q
 c) Volume=tight\\Dimer\\0,1\C,2.2922301172,1.5037622171,-0.7975289839\
 C,2.2218908569,0.2612496151,0.0922314611\C,3.5213722377,0.073302117,0.
 8670340325\O,1.1885193281,0.4267604907,1.0651134655\C,1.947300295,-1.0
 064064736,-0.7463898081\O,0.6569154768,-1.0470032921,-1.3147710472\H,3
 .1389666587,1.43344687,-1.5011204307\H,2.429026923,2.404476128,-0.1753
 659605\H,1.3698764985,1.6317398777,-1.3893267449\H,4.3631751577,-0.142

 Normal termination of Gaussian 16 at Mon Apr  1 15:31:59 2024.

 ---------------------------------------------------------------------
 #T Geom=AllCheck Guess=TCheck SCRF=Check GenChk RwB97XD/def2SVPP Freq
 ---------------------------------------------------------------------
 Structure from the checkpoint file:  "dimer.chk"
 -----
 Dimer
 -----
 Charge =  0 Multiplicity = 1

                         Standard orientation:
 ---------------------------------------------------------------------
 Center     Atomic      Atomic             Coordinates (Angstroms)
 Number     Number       Type             X           Y           Z
 ---------------------------------------------------------------------
      1          6           0       -2.287219    1.462463    0.852352
      2          6           0       -2.224254    0.247621   -0.075363
      3          6           0       -3.530357    0.082615   -0.844235
      4          8           0       -1.199410    0.443204   -1.051678
      5          6           0       -1.942042   -1.044802    0.721905
      6          8           0       -0.646762   -1.101962    1.277587
      7          1           0       -3.127799    1.370322    1.560789
      8          1           0       -2.429662    2.381606    0.259080
      9          1           0       -1.359802    1.572887    1.439754
     10          1           0       -4.366164   -0.154462   -0.163553
     11          1           0       -3.438188   -0.730252   -1.584643
     12          1           0       -3.769644    1.012038   -1.386733
     13          1           0       -0.449079    0.916309   -0.629130
     14          1           0       -2.102394   -1.914326    0.055263
     15          1           0       -2.667096   -1.125625    1.550140
     16          1           0       -0.055039   -1.505464    0.606798
     17          6           0        3.215120    1.332733   -0.353150
     18          6           0        2.203792    0.259801    0.033887
     19          6           0        2.746446   -0.617378    1.164006
     20          8           0        1.034870    0.946947    0.481346
     21          6           0        1.862952   -0.585381   -1.213214
     22          8           0        0.756963   -1.444084   -1.037099
     23          1           0        3.501749    1.920211    0.534620
     24          1           0        2.774817    2.023804   -1.091974
     25          1           0        4.124496    0.884061   -0.788732
     26          1           0        2.039838   -1.421972    1.431125
     27          1           0        2.923353   -0.003885    2.063571
     28          1           0        3.698892   -1.090243    0.870287
     29          1           0        0.509174    0.340504    1.045074
     30          1           0        2.735037   -1.207627   -1.479440
     31          1           0        1.671632    0.099381   -2.061583
     32          1           0       -0.046032   -0.946148   -1.309100
 ---------------------------------------------------------------------

 SCF Done:  E(RwB97XD) =  -617.110404684     a.u. after    1 cycles

 The electronic state is 1-A.
 Alpha  occ. eigenvalues --  -19.25762 -19.25758 -19.25530 -19.25521 -10.35559
 Alpha  occ. eigenvalues --  -10.35538 -10.33952 -10.33937 -10.28731 -10.28627
 Alpha  occ. eigenvalues --  -10.28565 -10.28543  -1.14388  -1.11595  -1.10555
 Alpha  occ. eigenvalues --   -1.10546  -0.88665  -0.88079  -0.78871  -0.78742
 Alpha  occ. eigenvalues --   -0.77150  -0.76896  -0.67417  -0.67235  -0.62330
 Alpha  occ. eigenvalues --   -0.60268  -0.59454  -0.58697  -0.55538  -0.55497
 Alpha  occ. eigenvalues --   -0.54729  -0.52907  -0.51196  -0.51046  -0.48087
 Alpha  occ. eigenvalues --   -0.48027  -0.47562  -0.47319  -0.46048  -0.45843
 Alpha  occ. eigenvalues --   -0.45008  -0.44813  -0.43510  -0.43328  -0.41193
 Alpha  occ. eigenvalues --   -0.39542  -0.39034  -0.38953  -0.35532  -0.33576
 Alpha virt. eigenvalues --    0.12658   0.13536   0.16150   0.16535   0.17101
 Alpha virt. eigenvalues --    0.17989   0.18730   0.19489   0.19946   0.20444
 Alpha virt. eigenvalues --    0.22046   0.22605   0.22923   0.23768   0.24236

 Mulliken charges:
               1
     1  C   -0.313962
     2  C   -0.033669
     3  C   -0.270880
     4  O   -0.536825
     5  C    0.029416
     6  O   -0.529138
     7  H    0.118045
     8  H    0.131295
     9  H    0.137442
    10  H    0.115360
    11  H    0.123411
    12  H    0.126639
    13  H    0.341601
    14  H    0.106521
    15  H    0.103856
    16  H    0.350230
    17  C   -0.271786
    18  C   -0.038422
    19  C   -0.314318
    20  O   -0.537454
    21  C    0.037680
    22  O   -0.530494
    23  H    0.126795
    24  H    0.124266
    25  H    0.115589
    26  H    0.134894
    27  H    0.132051
    28  H    0.119177
    29  H    0.347555
    30  H    0.103296
    31  H    0.107441
    32  H    0.344386
 Sum of Mulliken charges =  -0.00000

 Dipole moment (field-independent basis, Debye):
    X=              0.0142    Y=              0.2171    Z=             -0.0171  Tot=              0.2183
  Exact polarizability: 119.948   0.916  93.457  -0.853  -0.130  92.608
 Approx polarizability: 111.296   0.186 101.289  -2.104  -0.038 101.682
   1 Symmetry operations used in ECPInt.
 ECPInt:  NShTT=    6328 NPrTT=   25416 LenC2=    6215 LenP2D=   18479.
 LDataN:  DoStor=T MaxTD1= 6 Len=  172
 Calling FoFJK, ICntrl=    100127 FMM=F ISym2X=0 I1Cent= 0 IOpClX= 0 NMat=1 NMatS=1 NMatT=0.
 Full mass-weighted force constant matrix:
 Low frequencies ---   -8.5803   -0.0013   -0.0007    0.0008    3.7952    7.7704
 Low frequencies ---   76.6854   85.2365  100.1994
 Diagonal vibrational polarizability:

                      1                      2                      3
                      A                      A                      A
 Frequencies --     76.6754                85.2342               100.1974
 Red. masses --      3.3697                 3.3725                 2.8063
 Frc consts  --      0.0117                 0.0144                 0.0166
 IR Inten    --      1.9552                 0.6625                 2.9042

                      4                      5                      6
                      A                      A                      A
 Frequencies --    134.5159               161.6605               181.1354
 Red. masses --      5.1745                 3.0326                 2.7835
 Frc consts  --      0.0552                 0.0467                 0.0538
 IR Inten    --      0.1113                 1.4101                 3.0151

                      7                      8                      9
                      A                      A                      A
 Frequencies --    205.5135               220.1464               229.1083
 Red. masses --      2.6804                 1.7751                 1.0857
 Frc consts  --      0.0667                 0.0507                 0.0336
 IR Inten    --      6.3674                 3.2630                 0.6367

                     10                     11                     12
                      A                      A                      A
 Frequencies --    234.4180               260.7887               275.3541
 Red. masses --      1.6376                 1.4862                 1.4266
 Frc consts  --      0.0530                 0.0596                 0.0637
 IR Inten    --      1.2211                 2.1375                 3.1001

                     13                     14                     15
                      A                      A                      A
 Frequencies --    292.3822               302.2955               350.1990
 Red. masses --      2.1993                 2.8098                 2.2845
 Frc consts  --      0.1108                 0.1513                 0.1651
 IR Inten    --      6.7199                 3.1136                 2.0318

                     16                     17                     18
                      A                      A                      A
 Frequencies --    357.6565               388.6000               392.5175
 Red. masses --      2.3926                 2.9954                 3.1375
 Frc consts  --      0.1803                 0.2665                 0.2848
 IR Inten    --      2.1322                 0.6704                 1.2070

                     19                     20                     21
                      A                      A                      A
 Frequencies --    431.1237               434.4400               480.9205
 Red. masses --      2.3121                 2.5868                 2.9823
 Frc consts  --      0.2532                 0.2877                 0.4064
 IR Inten    --      2.9914                 1.1032                 9.6321

                     22                     23                     24
                      A                      A                      A
 Frequencies --    501.2818               567.2590               592.8067
 Red. masses --      3.1651                 1.0597                 3.4640
 Frc consts  --      0.4686                 0.2009                 0.7172
 IR Inten    --      9.8296               290.1127                15.1267

                     25                     26                     27
                      A                      A                      A
 Frequencies --    593.4539               719.0862               734.0614
 Red. masses --      3.4165                 1.0964                 1.0926
 Frc consts  --      0.7089                 0.3340                 0.3469
 IR Inten    --     13.0155               248.4259               240.7005

                     28                     29                     30
                      A                      A                      A
 Frequencies --    788.7807               791.6319               915.7955
 Red. masses --      3.6538                 3.7812                 1.7778
 Frc consts  --      1.3394                 1.3961                 0.8785
 IR Inten    --     19.4442                29.8933                 0.9821

                     31                     32                     33
                      A                      A                      A
 Frequencies --    916.6402               947.4834               949.7230
 Red. masses --      1.7928                 1.8561                 1.7896
 Frc consts  --      0.8875                 0.9817                 0.9511
 IR Inten    --      1.1282                 5.2589                23.3307

                     34                     35                     36
                      A                      A                      A
 Frequencies --    965.1721               969.4599               998.0869
 Red. masses --      1.4846                 1.5409                 1.3155
 Frc consts  --      0.8148                 0.8533                 0.7721
 IR Inten    --      3.6766                22.1478                 2.3612

                     37                     38                     39
                      A                      A                      A
 Frequencies --   1009.0010              1024.7242              1041.9184
 Red. masses --      1.5674                 1.2240                 1.4155
 Frc consts  --      0.9402                 0.7573                 0.9054
 IR Inten    --     19.0586                 2.3007                 1.4727

                     40                     41                     42
                      A                      A                      A
 Frequencies --   1042.4727              1136.9233              1138.2633
 Red. masses --      1.4218                 4.7060                 5.0431
 Frc consts  --      0.9103                 3.5840                 3.8498
 IR Inten    --      1.6323                86.9729               150.6258

                     43                     44                     45
                      A                      A                      A
 Frequencies --   1199.2681              1222.7458              1228.3399
 Red. masses --      1.8074                 1.9673                 2.0403
 Frc consts  --      1.5315                 1.7330                 1.8137
 IR Inten    --      2.1273                16.0259               125.9583

                     46                     47                     48
                      A                      A                      A
 Frequencies --   1237.5666              1277.4526              1280.7039
 Red. masses --      1.8635                 2.6963                 2.7124
 Frc consts  --      1.6816                 2.5924                 2.6212
 IR Inten    --      2.8559                11.9698                68.7492

                     49                     50                     51
                      A                      A                      A
 Frequencies --   1323.8831              1327.4987              1400.3591
 Red. masses --      1.3811                 1.3196                 1.2215
 Frc consts  --      1.4261                 1.3701                 1.4113
 IR Inten    --      1.6266                28.8216                 4.3233

                     52                     53                     54
                      A                      A                      A
 Frequencies --   1408.8335              1413.6678              1416.2363
 Red. masses --      1.2965                 1.3479                 1.3380
 Frc consts  --      1.5162                 1.5870                 1.5811
 IR Inten    --     17.3540                11.2319                13.1421

                     55                     56                     57
                      A                      A                      A
 Frequencies --   1436.0101              1436.5124              1461.7809
 Red. masses --      1.2685                 1.2687                 1.3008
 Frc consts  --      1.5412                 1.5425                 1.6377
 IR Inten    --     32.4437                15.7688                16.0599

                     58                     59                     60
                      A                      A                      A
 Frequencies --   1467.8858              1474.2712              1479.4409
 Red. masses --      1.0669                 1.1105                 1.0507
 Frc consts  --      1.3545                 1.4221                 1.3550
 IR Inten    --     16.5812                 0.7638                 1.9900

                     61                     62                     63
                      A                      A                      A
 Frequencies --   1480.5248              1491.6934              1494.0720
 Red. masses --      1.0676                 1.0849                 1.0923
 Frc consts  --      1.3788                 1.4223                 1.4366
 IR Inten    --      2.0494                 3.4922                 5.5858

                     64                     65                     66
                      A                      A                      A
 Frequencies --   1496.0760              1498.0429              1506.3466
 Red. masses --      1.1042                 1.0918                 1.0716
 Frc consts  --      1.4561                 1.4436                 1.4326
 IR Inten    --     10.6513                 5.8165                10.8537

                     67                     68                     69
                      A                      A                      A
 Frequencies --   1506.8705              1523.4790              1526.2777
 Red. masses --      1.0787                 1.2117                 1.1658
 Frc consts  --      1.4431                 1.6570                 1.6001
 IR Inten    --      9.1049                18.5692                10.3117

                     70                     71                     72
                      A                      A                      A
 Frequencies --   1585.5186              3025.9392              3029.4050
 Red. masses --      1.1286                 1.0639                 1.0623
 Frc consts  --      1.6716                 5.7397                 5.7441
 IR Inten    --    148.2088                44.5044                37.7012

                     73                     74                     75
                      A                      A                      A
 Frequencies --   3038.9889              3039.1879              3042.5458
 Red. masses --      1.0371                 1.0372                 1.0389
 Frc consts  --      5.6433                 5.6444                 5.6665
 IR Inten    --     17.9492                20.5571                21.8375

                     76                     77                     78
                      A                      A                      A
 Frequencies --   3043.0153              3102.9422              3103.9283
 Red. masses --      1.0386                 1.1069                 1.1055
 Frc consts  --      5.6666                 6.2791                 6.2753
 IR Inten    --      5.9991                39.9265                22.8047

                     79                     80                     81
                      A                      A                      A
 Frequencies --   3135.7004              3135.8993              3137.5181
 Red. masses --      1.1053                 1.1052                 1.1047
 Frc consts  --      6.4035                 6.4036                 6.4069
 IR Inten    --     10.2806                 6.2399                22.5830

                     82                     83                     84
                      A                      A                      A
 Frequencies --   3139.3774              3139.7525              3140.6699
 Red. masses --      1.1056                 1.1056                 1.1045
 Frc consts  --      6.4201                 6.4217                 6.4188
 IR Inten    --     12.4346                14.2690                14.2369

                     85                     86                     87
                      A                      A                      A
 Frequencies --   3144.2724              3144.5127              3435.0518
 Red. masses --      1.1051                 1.1051                 1.0707
 Frc consts  --      6.4370                 6.4379                 7.4438
 IR Inten    --     21.0707                20.7597                48.2312

                     88                     89                     90
                      A                      A                      A
 Frequencies --   3496.5473              3501.3716              3562.5250
 Red. masses --      1.0679                 1.0682                 1.0656
 Frc consts  --      7.6921                 7.7158                 7.9685
 IR Inten    --    212.3816               299.5055              1197.4237

                           ! Non-Optimized Parameters !

 1\1\GINC-C262\Freq\RwB97XD\def2SVPP\C8H20O4\PETERCHAO1\01-Apr-2024\0\\
 #T Geom=AllCheck Guess=TCheck SCRF=Check GenChk RwB97XD/def2SVPP Freq\
 \Dimer\\0,1\C,2.2922301172,1.5037622171,-0.7975289839\C,2.2218908569,0
 .2612496151,0.0922314611\C,3.5213722377,0.073302117,0.8670340325\O,1.1
 885193281,0.4267604907,1.0651134655\C,1.947300295,-1.0064064736,-0.746
 3898081\O,0.6569154768,-1.0470032921,-1.3147710472\H,3.1389666587,1.43
 344687,-1.5011204307\H,2.429026923,2.404476128,-0.1753659605\H,1.36987
 64985,1.6317398777,-1.3893267449\H,4.3631751577,-0.1427284453,0.186735

 Normal termination of Gaussian 16 at Mon Apr  1 15:38:18 2024.
