 Gaussian 16, Revision B.01,
 Gaussian 16:  ES64L-G16RevB.01 20-Dec-2017

 ----------------------------------------------------------------------
 #T wB97XD/def2svpp opt=(calcall,tight) int(grid=ultrafine) scf=(veryti
 ght,qc)
 ----------------------------------------------------------------------
 --------------
 Comment gs min
 --------------
 Symbolic Z-matrix:
 Charge =  1 Multiplicity = 2

 SCF Done:  E(UwB97XD) =  -2731.21307668     a.u. after   56 cycles
 SCF Done:  E(UwB97XD) =  -2731.21847655     a.u. after   15 cycles
 SCF Done:  E(UwB97XD) =  -2731.22017403     a.u. after   14 cycles
 SCF Done:  E(UwB97XD) =  -2731.22430296     a.u. after   37 cycles
 SCF Done:  E(UwB97XD) =  -2731.22635377     a.u. after   20 cycles
 SCF Done:  E(UwB97XD) =  -2731.22767510     a.u. after   33 cycles
 SCF Done:  E(UwB97XD) =  -2731.22777687     a.u. after   11 cycles
 SCF Done:  E(UwB97XD) =  -2731.22766196     a.u. after   21 cycles
 SCF Done:  E(UwB97XD) =  -2731.22777824     a.u. after   21 cycles
 SCF Done:  E(UwB97XD) =  -2731.22805845     a.u. after   16 cycles
 SCF Done:  E(UwB97XD) =  -2731.22848006     a.u. after   14 cycles
 SCF Done:  E(UwB97XD) =  -2731.22837483     a.u. after   15 cycles
 SCF Done:  E(UwB97XD) =  -2731.22854894     a.u. after   14 cycles
 SCF Done:  E(UwB97XD) =  -2731.22880913     a.u. after   11 cycles
 SCF Done:  E(UwB97XD) =  -2731.22881975     a.u. after    5 cycles
 SCF Done:  E(UwB97XD) =  -2731.22882026     a.u. after    8 cycles
 SCF Done:  E(UwB97XD) =  -2731.22882048     a.u. after    9 cycles
 SCF Done:  E(UwB97XD) =  -2731.22882048     a.u. after    5 cycles
 SCF Done:  E(UwB97XD) =  -2731.22882048     a.u. after    4 cycles
 Optimization completed.
    -- Stationary point found.

                         Standard orientation:
 ---------------------------------------------------------------------
 Center     Atomic      Atomic             Coordinates (Angstroms)
 Number     Number       Type             X           Y           Z
 ---------------------------------------------------------------------
      1          6           0       -1.728288    1.271127    0.751565
      2          6           0       -1.780255   -0.000000    0.028118
      3          6           0       -1.728287   -1.271126    0.751567
      4          6           0       -1.972424   -0.000001   -1.420556
      5         35           0        1.709139    0.000000   -0.025228
      6          1           0       -2.797633    1.491797    0.986916
      7          1           0       -1.383831    2.107366    0.121546
      8          1           0       -1.188030    1.215939    1.708259
      9          1           0       -2.797633   -1.491800    0.986911
     10          1           0       -1.188036   -1.215934    1.708264
     11          1           0       -1.383822   -2.107364    0.121552
     12          1           0       -2.449456    0.917344   -1.801036
     13          1           0       -2.449449   -0.917350   -1.801036
     14          1           0       -0.926436    0.000003   -1.812553
 ---------------------------------------------------------------------

 The electronic state is 2-A.
 Alpha  occ. eigenvalues -- -483.23768 -62.81859 -56.62957 -56.62212 -56.62189
 Alpha  occ. eigenvalues --  -10.62542 -10.50377 -10.50376 -10.50271  -8.98738
 Alpha  occ. eigenvalues --   -6.81883  -6.79739  -6.79658  -2.91955  -2.91460
 Alpha  occ. eigenvalues --   -2.91395  -2.89835  -2.89834  -1.15691  -1.02904
 Alpha  occ. eigenvalues --   -1.01615  -1.01450  -0.83874  -0.76307  -0.76180
 Alpha  occ. eigenvalues --   -0.75987  -0.68534  -0.68377  -0.66867  -0.66304
 Alpha  occ. eigenvalues --   -0.66271  -0.59010  -0.54618  -0.54202
 Alpha virt. eigenvalues --   -0.24053  -0.04594   0.00399   0.00805   0.01313
 Alpha virt. eigenvalues --    0.02069   0.02899   0.04912   0.05258   0.06994
 Alpha virt. eigenvalues --    0.08654   0.15124   0.17053   0.21242   0.29260

  Beta  occ. eigenvalues -- -483.23499 -62.81674 -56.62331 -56.62076 -56.62054
  Beta  occ. eigenvalues --  -10.62542 -10.50376 -10.50375 -10.50272  -8.98381
  Beta  occ. eigenvalues --   -6.80868  -6.79592  -6.79512  -2.91289  -2.90985
  Beta  occ. eigenvalues --   -2.90922  -2.89762  -2.89761  -1.15690  -1.01613
  Beta  occ. eigenvalues --   -1.01452  -0.97967  -0.83875  -0.76300  -0.76180
  Beta  occ. eigenvalues --   -0.75983  -0.68516  -0.68380  -0.66866  -0.66304
  Beta  occ. eigenvalues --   -0.66270  -0.53018  -0.52600
  Beta virt. eigenvalues --   -0.29394  -0.24048  -0.04572   0.00413   0.00809
  Beta virt. eigenvalues --    0.01333   0.02092   0.02911   0.04904   0.05297
  Beta virt. eigenvalues --    0.06989   0.08655   0.15121   0.17111   0.21537

 Mulliken charges and spin densities:
               1          2
     1  C   -0.307460   0.000352
     2  C   -0.109315  -0.002120
     3  C   -0.307460   0.000352
     4  C   -0.307887   0.000455
     5  Br   0.042089   1.003153
     6  H    0.240338  -0.000014
     7  H    0.211626   0.000002
     8  H    0.212214  -0.000145
     9  H    0.240338  -0.000013
    10  H    0.212213  -0.000145
    11  H    0.211626   0.000002
    12  H    0.213427  -0.000037
    13  H    0.213427  -0.000037
    14  H    0.234825  -0.001804
 Sum of Mulliken charges =   1.00000   1.00000

 Dipole moment (field-independent basis, Debye):
    X=             -7.9737    Y=             -0.0000    Z=              0.1263  Tot=              7.9747
  Exact polarizability:  54.894  -0.000  54.538   0.270   0.000  55.083
 Approx polarizability:  55.189  -0.000  58.410  -0.508  -0.000  58.235
                          Isotropic Fermi Contact Couplings
        Atom                 a.u.       MegaHertz       Gauss      10(-4) cm-1
     1  C(13)              0.00036       0.40944       0.14610       0.13657
     2  C(13)             -0.00043      -0.48664      -0.17364      -0.16232
     3  C(13)              0.00036       0.40946       0.14611       0.13658
     4  C(13)             -0.00041      -0.46553      -0.16611      -0.15528
     5  Br(79)             0.11093     124.65852      44.48126      41.58161
     6  H(1)               0.00001       0.04890       0.01745       0.01631

                      1                      2                      3
                      A                      A                      A
 Frequencies --     68.5783                75.2350                80.0110
 Red. masses --      5.1325                 2.4604                 3.1798
 Frc consts  --      0.0142                 0.0082                 0.0120
 IR Inten    --     10.0559                 1.0017                 5.3148

                      4                      5                      6
                      A                      A                      A
 Frequencies --    103.9175               194.6756               213.2772
 Red. masses --      1.0823                 1.0565                 1.0303
 Frc consts  --      0.0069                 0.0236                 0.0276
 IR Inten    --      0.3919                 4.4347                 3.4248

                      7                      8                      9
                      A                      A                      A
 Frequencies --    405.7676               422.5724               442.6531
 Red. masses --      1.6943                 2.1041                 2.0105
 Frc consts  --      0.1644                 0.2214                 0.2321
 IR Inten    --      0.8705                 0.1699                 0.7672

                     10                     11                     12
                      A                      A                      A
 Frequencies --    725.3062               748.2919               860.4423
 Red. masses --      1.2415                 1.4840                 2.2098
 Frc consts  --      0.3848                 0.4896                 0.9639
 IR Inten    --     15.7085                 2.6446                 5.4937

                     13                     14                     15
                      A                      A                      A
 Frequencies --    991.3634               995.5173              1029.9535
 Red. masses --      1.7674                 1.2289                 1.5250
 Frc consts  --      1.0234                 0.7176                 0.9531
 IR Inten    --     39.7189                 1.6199                 0.0450

                     16                     17                     18
                      A                      A                      A
 Frequencies --   1111.0655              1309.7596              1317.6180
 Red. masses --      1.9513                 1.4308                 1.2882
 Frc consts  --      1.4193                 1.4462                 1.3177
 IR Inten    --     72.8809                14.7405                 7.8052

                     19                     20                     21
                      A                      A                      A
 Frequencies --   1338.8180              1344.1500              1380.2696
 Red. masses --      1.2290                 1.1943                 1.3309
 Frc consts  --      1.2980                 1.2713                 1.4939
 IR Inten    --    167.1647                26.8425               163.0443

                     22                     23                     24
                      A                      A                      A
 Frequencies --   1389.1387              1417.5662              1432.9010
 Red. masses --      1.0358                 1.1507                 1.2502
 Frc consts  --      1.1776                 1.3623                 1.5124
 IR Inten    --      0.9243                 0.0029                13.3765

                     25                     26                     27
                      A                      A                      A
 Frequencies --   1503.1089              1506.1230              1513.8752
 Red. masses --      1.1754                 1.6623                 1.4209
 Frc consts  --      1.5646                 2.2216                 1.9187
 IR Inten    --      5.8664                37.8819                37.5081

                     28                     29                     30
                      A                      A                      A
 Frequencies --   2963.3866              2964.3446              2977.1834
 Red. masses --      1.0552                 1.0540                 1.0586
 Frc consts  --      5.4598                 5.4571                 5.5285
 IR Inten    --     71.0356               101.8234                13.7694

                     31                     32                     33
                      A                      A                      A
 Frequencies --   3107.2485              3109.1068              3112.6154
 Red. masses --      1.0762                 1.0754                 1.0774
 Frc consts  --      6.1221                 6.1251                 6.1498
 IR Inten    --      4.1023                 0.9733                17.8519

                     34                     35                     36
                      A                      A                      A
 Frequencies --   3180.4421              3186.2353              3190.6197
 Red. masses --      1.1125                 1.1116                 1.1114
 Frc consts  --      6.6304                 6.6491                 6.6663
 IR Inten    --      7.2024                 2.2216                 6.7777

 Normal termination of Gaussian 16 at Tue Jul 11 00:26:24 2023.
