 Gaussian 16, Revision B.01,
 Gaussian 16:  ES64L-G16RevB.01 20-Dec-2017

 ----------------------------------------------------------------------
 #T wB97XD/def2svpp opt=tight freq int(grid=ultrafine) scf=(verytight,q
 c) Volume=tight
 ----------------------------------------------------------------------
 -----
 Dimer
 -----
 Symbolic Z-matrix:
 Charge =  0 Multiplicity = 1

 SCF Done:  E(RwB97XD) =  -316.550559296     a.u. after    7 cycles
 SCF Done:  E(RwB97XD) =  -316.554390691     a.u. after    5 cycles
 SCF Done:  E(RwB97XD) =  -316.554485866     a.u. after    3 cycles
 SCF Done:  E(RwB97XD) =  -316.554536095     a.u. after    4 cycles
 SCF Done:  E(RwB97XD) =  -316.554544416     a.u. after    2 cycles
 SCF Done:  E(RwB97XD) =  -316.554561587     a.u. after    2 cycles
 SCF Done:  E(RwB97XD) =  -316.554666447     a.u. after    4 cycles
 SCF Done:  E(RwB97XD) =  -316.554693826     a.u. after    3 cycles
 SCF Done:  E(RwB97XD) =  -316.554714466     a.u. after    3 cycles
 SCF Done:  E(RwB97XD) =  -316.554716444     a.u. after    2 cycles
 SCF Done:  E(RwB97XD) =  -316.554736670     a.u. after    2 cycles
 SCF Done:  E(RwB97XD) =  -316.554736675     a.u. after    2 cycles
 SCF Done:  E(RwB97XD) =  -316.554736676     a.u. after    2 cycles
 SCF Done:  E(RwB97XD) =  -316.554736677     a.u. after    2 cycles
 SCF Done:  E(RwB97XD) =  -316.554736679     a.u. after    2 cycles
 SCF Done:  E(RwB97XD) =  -316.554736679     a.u. after    2 cycles
 SCF Done:  E(RwB97XD) =  -316.554736679     a.u. after    2 cycles
 SCF Done:  E(RwB97XD) =  -316.554736679     a.u. after    2 cycles
 SCF Done:  E(RwB97XD) =  -316.554736679     a.u. after    2 cycles
 Optimization completed.
    -- Stationary point found.
 Normal termination of Gaussian 16 at Sun Feb  5 15:47:08 2023.

 ---------------------------------------------------------------------
 #T Geom=AllCheck Guess=TCheck SCRF=Check GenChk RwB97XD/def2SVPP Freq
 ---------------------------------------------------------------------
 Structure from the checkpoint file:  "5.chk"
 -----
 Dimer
 -----
 Charge =  0 Multiplicity = 1

                         Standard orientation:
 ---------------------------------------------------------------------
 Center     Atomic      Atomic             Coordinates (Angstroms)
 Number     Number       Type             X           Y           Z
 ---------------------------------------------------------------------
      1          6           0       -1.778625   -1.262481    0.739966
      2          6           0       -1.903489    0.000007   -0.114830
      3          6           0       -3.206668    0.000088   -0.916379
      4          6           0       -1.778535    1.262407    0.740082
      5          1           0       -0.825065   -1.278758    1.296771
      6          1           0       -1.820522   -2.174219    0.118144
      7          1           0       -2.600073   -1.319687    1.478456
      8          1           0       -1.066058    0.000011   -0.838139
      9          1           0       -4.082787    0.000090   -0.241283
     10          1           0       -3.280440   -0.892415   -1.562640
     11          1           0       -3.280376    0.892654   -1.562561
     12          1           0       -0.824965    1.278567    1.296871
     13          1           0       -2.599968    1.319597    1.478590
     14          1           0       -1.820381    2.174206    0.118346
     15          6           0        2.308014   -0.000022    1.328881
     16          6           0        2.548013   -0.000016   -0.182247
     17          6           0        1.978306   -1.263306   -0.831418
     18          6           0        1.978382    1.263320   -0.831394
     19          1           0        2.749251   -0.892651    1.806586
     20          1           0        1.225074   -0.000001    1.552627
     21          1           0        2.749288    0.892582    1.806598
     22          1           0        3.641943   -0.000048   -0.349331
     23          1           0        0.883617   -1.320058   -0.687478
     24          1           0        2.421236   -2.174752   -0.392293
     25          1           0        2.176344   -1.280965   -1.917778
     26          1           0        2.421413    2.174728   -0.392292
     27          1           0        0.883705    1.320173   -0.687400
     28          1           0        2.176371    1.280962   -1.917763
 ---------------------------------------------------------------------

 SCF Done:  E(RwB97XD) =  -316.554736679     a.u. after    1 cycles

 The electronic state is 1-A.
 Alpha  occ. eigenvalues --  -10.29575 -10.29503 -10.27845 -10.27838 -10.27838
 Alpha  occ. eigenvalues --  -10.27808 -10.27752 -10.27751  -0.89538  -0.89270
 Alpha  occ. eigenvalues --   -0.77015  -0.76896  -0.76823  -0.76692  -0.64589
 Alpha  occ. eigenvalues --   -0.64300  -0.55619  -0.54517  -0.51720  -0.51700
 Alpha  occ. eigenvalues --   -0.51538  -0.51528  -0.47285  -0.46679  -0.46436
 Alpha  occ. eigenvalues --   -0.45805  -0.44339  -0.44283  -0.41076  -0.40904
 Alpha  occ. eigenvalues --   -0.40822  -0.40794  -0.40216  -0.39382
 Alpha virt. eigenvalues --    0.11823   0.14479   0.16817   0.16897   0.17456
 Alpha virt. eigenvalues --    0.19093   0.19853   0.20116   0.20242   0.20944
 Alpha virt. eigenvalues --    0.21946   0.22069   0.22849   0.24041   0.24658

 Mulliken charges:
               1
     1  C   -0.317363
     2  C   -0.236332
     3  C   -0.299302
     4  C   -0.317366
     5  H    0.129887
     6  H    0.118054
     7  H    0.111031
     8  H    0.114380
     9  H    0.108321
    10  H    0.116328
    11  H    0.116328
    12  H    0.129889
    13  H    0.111031
    14  H    0.118054
    15  C   -0.328121
    16  C   -0.200790
    17  C   -0.322550
    18  C   -0.322549
    19  H    0.116650
    20  H    0.128598
    21  H    0.116650
    22  H    0.095487
    23  H    0.125100
    24  H    0.115778
    25  H    0.115965
    26  H    0.115778
    27  H    0.125099
    28  H    0.115965
 Sum of Mulliken charges =  -0.00000

 Dipole moment (field-independent basis, Debye):
    X=              0.1143    Y=              0.0000    Z=             -0.0598  Tot=              0.1290
  Exact polarizability:  95.808  -0.000  88.665   1.347  -0.000  86.140
 Approx polarizability:  91.288  -0.000  89.521  -0.468  -0.000  89.400
   1 Symmetry operations used in ECPInt.
 ECPInt:  NShTT=    3916 NPrTT=   15740 LenC2=    3882 LenP2D=   11980.
 LDataN:  DoStor=T MaxTD1= 6 Len=  172
 Calling FoFJK, ICntrl=    100127 FMM=F ISym2X=0 I1Cent= 0 IOpClX= 0 NMat=1 NMatS=1 NMatT=0.
 Full mass-weighted force constant matrix:
 Low frequencies ---   -5.3929   -4.7342   -0.7577   -0.0009   -0.0002    0.0005
 Low frequencies ---   40.5259   49.5049   52.2730
 Diagonal vibrational polarizability:

                      1                      2                      3
                      A                      A                      A
 Frequencies --     40.4461                49.4974                52.2339
 Red. masses --      2.5869                 2.7510                 2.3593
 Frc consts  --      0.0025                 0.0040                 0.0038
 IR Inten    --      0.0008                 0.0101                 0.0015

                      4                      5                      6
                      A                      A                      A
 Frequencies --     55.6990                77.7163                87.7677
 Red. masses --      2.2675                 3.8362                 2.5206
 Frc consts  --      0.0041                 0.0137                 0.0114
 IR Inten    --      0.0003                 0.0295                 0.0031

                      7                      8                      9
                      A                      A                      A
 Frequencies --    218.9342               225.0055               267.6315
 Red. masses --      1.0169                 1.0149                 1.0645
 Frc consts  --      0.0287                 0.0303                 0.0449
 IR Inten    --      0.0022                 0.0117                 0.0368

                     10                     11                     12
                      A                      A                      A
 Frequencies --    268.9331               277.7780               279.7644
 Red. masses --      1.0864                 1.0544                 1.0783
 Frc consts  --      0.0463                 0.0479                 0.0497
 IR Inten    --      0.0365                 0.0320                 0.0019

                     13                     14                     15
                      A                      A                      A
 Frequencies --    376.3821               377.3925               378.4304
 Red. masses --      2.0516                 2.0491                 2.0791
 Frc consts  --      0.1712                 0.1720                 0.1754
 IR Inten    --      0.0063                 0.0062                 0.0022

                     16                     17                     18
                      A                      A                      A
 Frequencies --    380.4738               441.3396               444.3184
 Red. masses --      2.0555                 1.9052                 1.9198
 Frc consts  --      0.1753                 0.2186                 0.2233
 IR Inten    --      0.0115                 0.7608                 0.7416

                     19                     20                     21
                      A                      A                      A
 Frequencies --    819.9533               819.9988               938.1095
 Red. masses --      2.7176                 2.7235                 1.1796
 Frc consts  --      1.0765                 1.0790                 0.6116
 IR Inten    --      0.4153                 2.0408                 0.7847

                     22                     23                     24
                      A                      A                      A
 Frequencies --    938.6380               939.4872               939.8141
 Red. masses --      1.1838                 1.1853                 1.1865
 Frc consts  --      0.6145                 0.6164                 0.6174
 IR Inten    --      1.5461                 0.9995                 3.2194

                     25                     26                     27
                      A                      A                      A
 Frequencies --    966.4194               967.9283               994.4715
 Red. masses --      1.2034                 1.2029                 1.7303
 Frc consts  --      0.6622                 0.6640                 1.0082
 IR Inten    --      0.0009                 0.0015                 0.1356

                     28                     29                     30
                      A                      A                      A
 Frequencies --    994.4915               995.0499               995.8888
 Red. masses --      1.7223                 1.7130                 1.7101
 Frc consts  --      1.0036                 0.9993                 0.9993
 IR Inten    --      0.5159                 0.0699                 0.3443

                     31                     32                     33
                      A                      A                      A
 Frequencies --   1210.5208              1211.9398              1212.7557
 Red. masses --      1.6753                 1.6802                 1.6902
 Frc consts  --      1.4464                 1.4540                 1.4647
 IR Inten    --      4.2353                 2.9257                 2.1362

                     34                     35                     36
                      A                      A                      A
 Frequencies --   1212.9713              1218.1276              1219.9770
 Red. masses --      1.6917                 1.9143                 1.9125
 Frc consts  --      1.4665                 1.6736                 1.6771
 IR Inten    --      1.3406                 2.0674                 0.7683

                     37                     38                     39
                      A                      A                      A
 Frequencies --   1368.9618              1372.0045              1372.8210
 Red. masses --      1.3287                 1.3406                 1.3175
 Frc consts  --      1.4671                 1.4869                 1.4629
 IR Inten    --      0.1061                 1.1778                 0.0679

                     40                     41                     42
                      A                      A                      A
 Frequencies --   1373.6055              1416.0726              1416.7727
 Red. masses --      1.3421                 1.3760                 1.3902
 Frc consts  --      1.4919                 1.6257                 1.6441
 IR Inten    --      1.3290                15.9195                 4.3799

                     43                     44                     45
                      A                      A                      A
 Frequencies --   1417.0995              1417.9194              1432.9448
 Red. masses --      1.3920                 1.3828                 1.2444
 Frc consts  --      1.6470                 1.6380                 1.5055
 IR Inten    --      1.5449                22.7227                 2.6412

                     46                     47                     48
                      A                      A                      A
 Frequencies --   1436.0381              1475.8784              1476.8764
 Red. masses --      1.2489                 1.0463                 1.0442
 Frc consts  --      1.5175                 1.3428                 1.3419
 IR Inten    --      4.9018                 0.1597                 0.0514

                     49                     50                     51
                      A                      A                      A
 Frequencies --   1481.1104              1482.4958              1483.5463
 Red. masses --      1.0373                 1.0390                 1.0385
 Frc consts  --      1.3407                 1.3454                 1.3466
 IR Inten    --      0.9169                 0.0250                 0.2511

                     52                     53                     54
                      A                      A                      A
 Frequencies --   1483.8383              1500.1653              1500.8735
 Red. masses --      1.0398                 1.0739                 1.0763
 Frc consts  --      1.3489                 1.4239                 1.4284
 IR Inten    --      0.2387                 9.5048                 0.0774

                     55                     56                     57
                      A                      A                      A
 Frequencies --   1503.7716              1505.8682              1509.0166
 Red. masses --      1.0676                 1.0731                 1.0468
 Frc consts  --      1.4223                 1.4338                 1.4044
 IR Inten    --     10.8965                 8.4127                19.4963

                     58                     59                     60
                      A                      A                      A
 Frequencies --   1511.0336              3019.4880              3020.6142
 Red. masses --      1.0512                 1.0377                 1.0377
 Frc consts  --      1.4141                 5.5745                 5.5784
 IR Inten    --      8.0569                28.5342                27.1777

                     61                     62                     63
                      A                      A                      A
 Frequencies --   3022.3129              3024.7419              3024.7878
 Red. masses --      1.0373                 1.0391                 1.0370
 Frc consts  --      5.5826                 5.6013                 5.5901
 IR Inten    --     28.8534                15.6747                35.1026

                     64                     65                     66
                      A                      A                      A
 Frequencies --   3028.6374              3034.4135              3040.7919
 Red. masses --      1.0395                 1.0847                 1.0836
 Frc consts  --      5.6181                 5.8844                 5.9030
 IR Inten    --     11.9545                16.0678                24.6008

                     67                     68                     69
                      A                      A                      A
 Frequencies --   3107.9116              3108.2266              3113.1145
 Red. masses --      1.1043                 1.1042                 1.1041
 Frc consts  --      6.2845                 6.2854                 6.3046
 IR Inten    --      7.2455                 4.2431                26.7420

                     70                     71                     72
                      A                      A                      A
 Frequencies --   3114.3214              3116.8176              3117.5743
 Red. masses --      1.1026                 1.1055                 1.1045
 Frc consts  --      6.3007                 6.3274                 6.3250
 IR Inten    --     95.5577                 0.0264                 0.3636

                     73                     74                     75
                      A                      A                      A
 Frequencies --   3119.3557              3119.4137              3119.4966
 Red. masses --      1.1047                 1.1048                 1.1043
 Frc consts  --      6.3333                 6.3338                 6.3314
 IR Inten    --     31.8245                 5.5441                41.7056

                     76                     77                     78
                      A                      A                      A
 Frequencies --   3121.2805              3121.7221              3124.4177
 Red. masses --      1.1036                 1.1042                 1.1028
 Frc consts  --      6.3346                 6.3401                 6.3429
 IR Inten    --     69.9012                37.0976                18.2557

                           ! Non-Optimized Parameters !
 Normal termination of Gaussian 16 at Sun Feb  5 15:50:06 2023.
