 Gaussian 16, Revision B.01,
 Gaussian 16:  ES64L-G16RevB.01 20-Dec-2017

 ----------------------------------------------------------------------
 #T wB97XD/def2svpp opt=tight freq int(grid=ultrafine) scf=(verytight,q
 c) Volume=tight
 ----------------------------------------------------------------------
 -----
 Dimer
 -----
 Symbolic Z-matrix:
 Charge =  0 Multiplicity = 1

 SCF Done:  E(RwB97XD) =  -614.778083920     a.u. after    8 cycles
 SCF Done:  E(RwB97XD) =  -614.780857253     a.u. after    5 cycles
 SCF Done:  E(RwB97XD) =  -614.780986870     a.u. after    4 cycles
 SCF Done:  E(RwB97XD) =  -614.780992709     a.u. after    7 cycles
 SCF Done:  E(RwB97XD) =  -614.781036706     a.u. after    5 cycles
 SCF Done:  E(RwB97XD) =  -614.781055952     a.u. after    3 cycles
 SCF Done:  E(RwB97XD) =  -614.781069788     a.u. after    3 cycles
 SCF Done:  E(RwB97XD) =  -614.781071182     a.u. after    2 cycles
 SCF Done:  E(RwB97XD) =  -614.781071819     a.u. after    2 cycles
 SCF Done:  E(RwB97XD) =  -614.781072035     a.u. after    2 cycles
 SCF Done:  E(RwB97XD) =  -614.781072078     a.u. after    2 cycles
 SCF Done:  E(RwB97XD) =  -614.781072084     a.u. after    2 cycles
 SCF Done:  E(RwB97XD) =  -614.781072086     a.u. after    2 cycles
 SCF Done:  E(RwB97XD) =  -614.781072086     a.u. after    2 cycles
 SCF Done:  E(RwB97XD) =  -614.781072087     a.u. after    2 cycles
 SCF Done:  E(RwB97XD) =  -614.781072087     a.u. after    2 cycles
 SCF Done:  E(RwB97XD) =  -614.781072087     a.u. after    2 cycles
 SCF Done:  E(RwB97XD) =  -614.781072087     a.u. after    2 cycles
 SCF Done:  E(RwB97XD) =  -614.781072087     a.u. after    2 cycles
 Optimization completed.
    -- Stationary point found.

 1\1\GINC-C395\FOpt\RwB97XD\def2SVPP\C8H16O4\PETERCHAO1\03-Feb-2023\0\\
 #T wB97XD/def2svpp opt=tight freq int(grid=ultrafine) scf=(verytight,q
 c) Volume=tight\\Dimer\\0,1\C,-5.7160242095,-0.2174384536,-0.004092189
 6\C,-4.230893268,-0.5684203101,-0.0049666395\C,-3.3427982488,0.6699641
 627,-0.0018232012\C,-1.86434692,0.3719320318,-0.0025692098\O,-1.115753
 1429,1.4446921558,0.0000643457\O,-1.4190979816,-0.7669446346,-0.005369
 6763\H,-5.9888206659,0.3777115731,-0.8938840281\H,-5.9888345689,0.3732
 096474,0.8886902211\H,-6.3384810618,-1.1279680036,-0.0063964277\H,-3.9

 Normal termination of Gaussian 16 at Fri Feb  3 11:06:15 2023.

 ---------------------------------------------------------------------
 #T Geom=AllCheck Guess=TCheck SCRF=Check GenChk RwB97XD/def2SVPP Freq
 ---------------------------------------------------------------------
 Structure from the checkpoint file:  "32.chk"
 -----
 Dimer
 -----
 Charge =  0 Multiplicity = 1

                         Standard orientation:
 ---------------------------------------------------------------------
 Center     Atomic      Atomic             Coordinates (Angstroms)
 Number     Number       Type             X           Y           Z
 ---------------------------------------------------------------------
      1          6           0        5.717049   -0.188644    0.000046
      2          6           0        4.233703   -0.547095    0.000048
      3          6           0        3.339388    0.686809   -0.000030
      4          6           0        1.862455    0.381340   -0.000026
      5          8           0        1.108473    1.450323   -0.000004
      6          8           0        1.422942   -0.759766   -0.000047
      7          1           0        5.986857    0.405665    0.891309
      8          1           0        5.986874    0.405578   -0.891271
      9          1           0        6.344079   -1.096033    0.000096
     10          1           0        3.993650   -1.167957    0.880073
     11          1           0        3.993670   -1.168053   -0.879915
     12          1           0        3.539828    1.328045   -0.878147
     13          1           0        3.539819    1.328159    0.878004
     14          1           0        0.130425    1.200975   -0.000012
     15          6           0       -5.717050    0.188637    0.000046
     16          6           0       -4.233705    0.547092    0.000000
     17          6           0       -3.339386   -0.686810    0.000013
     18          6           0       -1.862454   -0.381337   -0.000014
     19          8           0       -1.108469   -1.450318   -0.000034
     20          8           0       -1.422945    0.759770   -0.000013
     21          1           0       -5.986885   -0.405660   -0.891217
     22          1           0       -6.344083    1.096024    0.000029
     23          1           0       -5.986845   -0.405599    0.891363
     24          1           0       -3.993642    1.168028    0.879970
     25          1           0       -3.993685    1.167977   -0.880018
     26          1           0       -3.539834   -1.328124   -0.878044
     27          1           0       -3.539807   -1.328082    0.878107
     28          1           0       -0.130421   -1.200968   -0.000043
 ---------------------------------------------------------------------

 SCF Done:  E(RwB97XD) =  -614.781072087     a.u. after    1 cycles

 The electronic state is 1-A.
 Alpha  occ. eigenvalues --  -19.28863 -19.28862 -19.25940 -19.25938 -10.44026
 Alpha  occ. eigenvalues --  -10.44026 -10.30843 -10.30843 -10.29572 -10.29572
 Alpha  occ. eigenvalues --  -10.28707 -10.28707  -1.21105  -1.19826  -1.11664
 Alpha  occ. eigenvalues --   -1.10234  -0.89900  -0.89616  -0.81897  -0.81112
 Alpha  occ. eigenvalues --   -0.72672  -0.71845  -0.67245  -0.66739  -0.61941
 Alpha  occ. eigenvalues --   -0.58899  -0.58338  -0.58067  -0.57785  -0.56796
 Alpha  occ. eigenvalues --   -0.53353  -0.52952  -0.51604  -0.50546  -0.49615
 Alpha  occ. eigenvalues --   -0.47226  -0.47063  -0.46845  -0.44262  -0.43768
 Alpha  occ. eigenvalues --   -0.43127  -0.43011  -0.42083  -0.41900  -0.41224
 Alpha  occ. eigenvalues --   -0.40385  -0.38261  -0.36861
 Alpha virt. eigenvalues --    0.07917   0.08365   0.13494   0.13653   0.17778
 Alpha virt. eigenvalues --    0.17880   0.18237   0.18259   0.19096   0.19530
 Alpha virt. eigenvalues --    0.22164   0.22298   0.23900   0.23905   0.24157

 Mulliken charges:
               1
     1  C   -0.314047
     2  C   -0.223921
     3  C   -0.266321
     4  C    0.264001
     5  O   -0.359997
     6  O   -0.332315
     7  H    0.114946
     8  H    0.114945
     9  H    0.127012
    10  H    0.120025
    11  H    0.120028
    12  H    0.142347
    13  H    0.142346
    14  H    0.350952
    15  C   -0.314047
    16  C   -0.223921
    17  C   -0.266321
    18  C    0.264000
    19  O   -0.359997
    20  O   -0.332316
    21  H    0.114945
    22  H    0.127012
    23  H    0.114945
    24  H    0.120027
    25  H    0.120026
    26  H    0.142346
    27  H    0.142347
    28  H    0.350952
 Sum of Mulliken charges =  -0.00000

 Dipole moment (field-independent basis, Debye):
    X=              0.0000    Y=              0.0000    Z=              0.0000  Tot=              0.0000
  Exact polarizability: 124.872   2.283  93.062  -0.000   0.000  73.316
 Approx polarizability: 100.746   3.834 112.489  -0.000   0.000  83.091
   1 Symmetry operations used in ECPInt.
 ECPInt:  NShTT=    5460 NPrTT=   21940 LenC2=    4940 LenP2D=   13941.
 LDataN:  DoStor=T MaxTD1= 6 Len=  172
 Calling FoFJK, ICntrl=    100127 FMM=F ISym2X=0 I1Cent= 0 IOpClX= 0 NMat=1 NMatS=1 NMatT=0.
 Full mass-weighted force constant matrix:
 Low frequencies ---   -8.5967   -0.0016   -0.0012    0.0004    1.9600    2.8656
 Low frequencies ---   18.1219   34.3941   34.4987
 Diagonal vibrational polarizability:

                      1                      2                      3
                      A                      A                      A
 Frequencies --     18.1219                33.9555                34.4987
 Red. masses --      2.6498                 2.2243                 1.8843
 Frc consts  --      0.0005                 0.0015                 0.0013
 IR Inten    --      0.0109                 0.0000                 1.5384

                      4                      5                      6
                      A                      A                      A
 Frequencies --     69.7524                73.6069                75.8126
 Red. masses --      3.2433                 3.8105                13.2825
 Frc consts  --      0.0093                 0.0122                 0.0450
 IR Inten    --      0.0000                 1.6358                 0.3027

                      7                      8                      9
                      A                      A                      A
 Frequencies --    104.1000               114.9442               146.4377
 Red. masses --      4.9257                 2.6702                 3.7421
 Frc consts  --      0.0315                 0.0208                 0.0473
 IR Inten    --      0.0000                 1.9422                 0.0000

                     10                     11                     12
                      A                      A                      A
 Frequencies --    165.6306               234.5200               250.1412
 Red. masses --      5.7240                 4.7933                 1.0783
 Frc consts  --      0.0925                 0.1553                 0.0398
 IR Inten    --      0.0000                 0.0000                 0.1906

                     13                     14                     15
                      A                      A                      A
 Frequencies --    250.1720               267.2700               359.8641
 Red. masses --      1.0789                 3.7606                 4.0813
 Frc consts  --      0.0398                 0.1583                 0.3114
 IR Inten    --      0.0000                47.5269                18.1652

                     16                     17                     18
                      A                      A                      A
 Frequencies --    384.7233               481.7127               526.3868
 Red. masses --      4.0715                 4.8925                 5.0762
 Frc consts  --      0.3551                 0.6689                 0.8287
 IR Inten    --      0.0000                 0.0000                41.9726

                     19                     20                     21
                      A                      A                      A
 Frequencies --    577.4533               587.4211               693.6363
 Red. masses --      1.9848                 2.0892                 5.1081
 Frc consts  --      0.3899                 0.4247                 1.4480
 IR Inten    --      0.0126                 0.0000                 0.0000

                     22                     23                     24
                      A                      A                      A
 Frequencies --    707.3292               763.6083               764.0240
 Red. masses --      5.5300                 1.2059                 1.2173
 Frc consts  --      1.6301                 0.4143                 0.4187
 IR Inten    --     52.6412                13.4696                 0.0000

                     25                     26                     27
                      A                      A                      A
 Frequencies --    903.7309               903.8234               911.7841
 Red. masses --      1.3824                 1.3719                 2.1688
 Frc consts  --      0.6652                 0.6603                 1.0623
 IR Inten    --      0.0000                 0.7449                 0.0000

                     28                     29                     30
                      A                      A                      A
 Frequencies --    917.2119               970.4444               972.5746
 Red. masses --      2.1146                 2.3819                 2.6232
 Frc consts  --      1.0481                 1.3216                 1.4619
 IR Inten    --     20.8661                 0.0000                 1.5329

                     31                     32                     33
                      A                      A                      A
 Frequencies --   1017.1228              1057.5381              1080.0831
 Red. masses --      1.0523                 1.0913                 2.2063
 Frc consts  --      0.6414                 0.7191                 1.5164
 IR Inten    --      0.0000               218.5271                 0.0000

                     34                     35                     36
                      A                      A                      A
 Frequencies --   1080.3104              1138.1596              1138.6610
 Red. masses --      2.2048                 1.6977                 1.6990
 Frc consts  --      1.5160                 1.2957                 1.2978
 IR Inten    --      2.4156                 0.0000                 5.4490

                     37                     38                     39
                      A                      A                      A
 Frequencies --   1148.5019              1148.7620              1262.1567
 Red. masses --      2.2266                 2.2267                 1.3190
 Frc consts  --      1.7305                 1.7313                 1.2380
 IR Inten    --      1.9470                 0.0000                 0.0000

                     40                     41                     42
                      A                      A                      A
 Frequencies --   1262.2117              1284.1384              1285.4626
 Red. masses --      1.3182                 1.6474                 1.5898
 Frc consts  --      1.2373                 1.6006                 1.5478
 IR Inten    --      0.0648                 0.0000               120.6095

                     43                     44                     45
                      A                      A                      A
 Frequencies --   1334.1314              1334.2494              1383.8953
 Red. masses --      1.0844                 1.0846                 1.8367
 Frc consts  --      1.1371                 1.1376                 2.0725
 IR Inten    --      0.0000                 0.0148                 0.0000

                     46                     47                     48
                      A                      A                      A
 Frequencies --   1385.2048              1422.0320              1426.4493
 Red. masses --      1.7001                 1.2915                 1.3479
 Frc consts  --      1.9220                 1.5387                 1.6160
 IR Inten    --    189.0304                69.2841                 0.0000

                     49                     50                     51
                      A                      A                      A
 Frequencies --   1433.3378              1443.5868              1455.9097
 Red. masses --      1.3707                 1.4453                 1.1423
 Frc consts  --      1.6592                 1.7746                 1.4266
 IR Inten    --     25.3608                 0.0000                36.7919

                     52                     53                     54
                      A                      A                      A
 Frequencies --   1456.8986              1486.1359              1486.4440
 Red. masses --      1.2377                 1.0603                 1.0551
 Frc consts  --      1.5479                 1.3797                 1.3735
 IR Inten    --      0.0000                 1.5343                 0.0000

                     55                     56                     57
                      A                      A                      A
 Frequencies --   1495.4061              1495.4091              1500.5196
 Red. masses --      1.0374                 1.0374                 1.1114
 Frc consts  --      1.3668                 1.3668                 1.4744
 IR Inten    --      0.0000                20.1702                33.1784

                     58                     59                     60
                      A                      A                      A
 Frequencies --   1501.9352              1526.4301              1546.7081
 Red. masses --      1.0960                 2.7461                 2.0746
 Frc consts  --      1.4566                 3.7699                 2.9241
 IR Inten    --      0.0000               329.5967                 0.0000

                     61                     62                     63
                      A                      A                      A
 Frequencies --   1784.5081              1849.7863              2972.3492
 Red. masses --      6.1633                 9.9197                 1.0862
 Frc consts  --     11.5638                19.9982                 5.6538
 IR Inten    --      0.0000               757.0616                 0.0000

                     64                     65                     66
                      A                      A                      A
 Frequencies --   3029.0370              3029.2269              3045.6709
 Red. masses --      1.0385                 1.0384                 1.0649
 Frc consts  --      5.6137                 5.6142                 5.8198
 IR Inten    --    100.4986                 0.0000                15.6082

                     67                     68                     69
                      A                      A                      A
 Frequencies --   3045.8996              3063.8980              3063.9616
 Red. masses --      1.0648                 1.0636                 1.0637
 Frc consts  --      5.8202                 5.8827                 5.8836
 IR Inten    --      0.0000                26.8978                 0.0000

                     70                     71                     72
                      A                      A                      A
 Frequencies --   3092.4464              3092.4514              3103.2682
 Red. masses --      1.1021                 1.1021                 1.0668
 Frc consts  --      6.2096                 6.2096                 6.0528
 IR Inten    --      0.0003                 2.6555              4275.0247

                     73                     74                     75
                      A                      A                      A
 Frequencies --   3108.7009              3108.7069              3127.5559
 Red. masses --      1.1049                 1.1049                 1.1053
 Frc consts  --      6.2912                 6.2912                 6.3699
 IR Inten    --      0.0001                 1.0604                 0.0001

                     76                     77                     78
                      A                      A                      A
 Frequencies --   3127.6110              3130.6215              3130.7176
 Red. masses --      1.1053                 1.1042                 1.1040
 Frc consts  --      6.3701                 6.3761                 6.3753
 IR Inten    --     81.3836                 0.0000                50.4963

                           ! Non-Optimized Parameters !

 1\1\GINC-C395\Freq\RwB97XD\def2SVPP\C8H16O4\PETERCHAO1\03-Feb-2023\0\\
 #T Geom=AllCheck Guess=TCheck SCRF=Check GenChk RwB97XD/def2SVPP Freq\
 \Dimer\\0,1\C,-5.7160242095,-0.2174384536,-0.0040921896\C,-4.230893268
 ,-0.5684203101,-0.0049666395\C,-3.3427982488,0.6699641627,-0.001823201
 2\C,-1.86434692,0.3719320318,-0.0025692098\O,-1.1157531429,1.444692155
 8,0.0000643457\O,-1.4190979816,-0.7669446346,-0.0053696763\H,-5.988820
 6659,0.3777115731,-0.8938840281\H,-5.9888345689,0.3732096474,0.8886902
 211\H,-6.3384810618,-1.1279680036,-0.0063964277\H,-3.9877214565,-1.185

 Normal termination of Gaussian 16 at Fri Feb  3 11:10:01 2023.
