 Gaussian 16, Revision B.01,
 Gaussian 16:  ES64L-G16RevB.01 20-Dec-2017

 ----------------------------------------------------------------------
 #T wB97XD/def2svpp opt=tight freq int(grid=ultrafine) scf=(verytight,q
 c) Volume=tight
 ----------------------------------------------------------------------
 -------
 Monomer
 -------
 Symbolic Z-matrix:
 Charge =  0 Multiplicity = 1

 SCF Done:  E(RwB97XD) =  -1725.00196032     a.u. after    8 cycles
 SCF Done:  E(RwB97XD) =  -1725.00384388     a.u. after    9 cycles
 SCF Done:  E(RwB97XD) =  -1725.00402457     a.u. after    5 cycles
 SCF Done:  E(RwB97XD) =  -1725.00398547     a.u. after    5 cycles
 SCF Done:  E(RwB97XD) =  -1725.00404189     a.u. after    5 cycles
 SCF Done:  E(RwB97XD) =  -1725.00404765     a.u. after    3 cycles
 SCF Done:  E(RwB97XD) =  -1725.00404774     a.u. after    2 cycles
 SCF Done:  E(RwB97XD) =  -1725.00404782     a.u. after    2 cycles
 SCF Done:  E(RwB97XD) =  -1725.00404782     a.u. after    2 cycles
 SCF Done:  E(RwB97XD) =  -1725.00404782     a.u. after    2 cycles
 SCF Done:  E(RwB97XD) =  -1725.00404782     a.u. after    2 cycles
 SCF Done:  E(RwB97XD) =  -1725.00404782     a.u. after    2 cycles
 Optimization completed.
    -- Stationary point found.
 Normal termination of Gaussian 16 at Fri Mar 29 15:41:07 2024.

 ---------------------------------------------------------------------
 #T Geom=AllCheck Guess=TCheck SCRF=Check GenChk RwB97XD/def2SVPP Freq
 ---------------------------------------------------------------------
 Structure from the checkpoint file:  "monomer.chk"
 -------
 Monomer
 -------
 Charge =  0 Multiplicity = 1

                         Standard orientation:
 ---------------------------------------------------------------------
 Center     Atomic      Atomic             Coordinates (Angstroms)
 Number     Number       Type             X           Y           Z
 ---------------------------------------------------------------------
      1          8           0        0.000007   -1.608297    1.684417
      2          6           0        0.000003   -1.546856    0.353026
      3          8           0        0.000003   -2.516219   -0.353819
      4          6           0        0.000001   -0.111221   -0.197782
      5          6           0       -1.231269    0.025063   -1.110101
      6         17           0       -2.769063   -0.201505   -0.218989
      7          6           0       -0.000001    0.920869    0.936053
      8         17           0       -0.000009    2.608082    0.319423
      9          6           0        1.231270    0.025067   -1.110102
     10         17           0        2.769065   -0.201493   -0.218989
     11          1           0        0.000008   -2.549351    1.937273
     12          1           0       -1.203688   -0.743389   -1.894925
     13          1           0       -1.262511    1.026187   -1.562406
     14          1           0        0.894775    0.807955    1.560744
     15          1           0       -0.894774    0.807948    1.560747
     16          1           0        1.262508    1.026191   -1.562408
     17          1           0        1.203692   -0.743385   -1.894924
 ---------------------------------------------------------------------

 SCF Done:  E(RwB97XD) =  -1725.00404782     a.u. after    1 cycles

 The electronic state is 1-A.
 Alpha  occ. eigenvalues -- -101.67904-101.67904-101.67552 -19.32883 -19.26810
 Alpha  occ. eigenvalues --  -10.45690 -10.37305 -10.37304 -10.36712 -10.36372
 Alpha  occ. eigenvalues --   -9.58662  -9.58662  -9.58311  -7.34058  -7.34058
 Alpha  occ. eigenvalues --   -7.33692  -7.33075  -7.33075  -7.33041  -7.33041
 Alpha  occ. eigenvalues --   -7.32735  -7.32696  -1.23136  -1.13419  -1.00661
 Alpha  occ. eigenvalues --   -0.96372  -0.95288  -0.89322  -0.80065  -0.76344
 Alpha  occ. eigenvalues --   -0.75752  -0.68170  -0.63021  -0.60744  -0.59365
 Alpha  occ. eigenvalues --   -0.57102  -0.55360  -0.53904  -0.52788  -0.50914
 Alpha  occ. eigenvalues --   -0.50548  -0.49173  -0.48460  -0.47529  -0.43008
 Alpha  occ. eigenvalues --   -0.40876  -0.39315  -0.39065  -0.39008  -0.38625
 Alpha  occ. eigenvalues --   -0.38159  -0.38097
 Alpha virt. eigenvalues --    0.06155   0.07633   0.10905   0.12707   0.14155
 Alpha virt. eigenvalues --    0.14912   0.17237   0.18165   0.18550   0.20277
 Alpha virt. eigenvalues --    0.23145   0.25120   0.25532   0.27554   0.28131

 Mulliken charges:
               1
     1  O   -0.342778
     2  C    0.276028
     3  O   -0.217697
     4  C   -0.358952
     5  C   -0.131563
     6  Cl  -0.134421
     7  C   -0.085587
     8  Cl  -0.147566
     9  C   -0.131563
    10  Cl  -0.134421
    11  H    0.350155
    12  H    0.179771
    13  H    0.174646
    14  H    0.174765
    15  H    0.174765
    16  H    0.174646
    17  H    0.179771
 Sum of Mulliken charges =  -0.00000

 Dipole moment (field-independent basis, Debye):
    X=              0.0000    Y=             -0.4872    Z=              0.1870  Tot=              0.5218
  Exact polarizability:  86.154  -0.000  82.184   0.000  -1.764  72.326
 Approx polarizability:  93.986  -0.000  94.481   0.000  -0.334  90.203
   1 Symmetry operations used in ECPInt.
 ECPInt:  NShTT=    3240 NPrTT=   14042 LenC2=    3148 LenP2D=   10086.
 LDataN:  DoStor=T MaxTD1= 6 Len=  172
 Calling FoFJK, ICntrl=    100127 FMM=F ISym2X=0 I1Cent= 0 IOpClX= 0 NMat=1 NMatS=1 NMatT=0.
 Full mass-weighted force constant matrix:
 Low frequencies ---   -8.6498   -0.0015    0.0033    0.0034    4.7616    5.3742
 Low frequencies ---   56.9286   75.1266   81.3541
 Diagonal vibrational polarizability:

                      1                      2                      3
                      A                      A                      A
 Frequencies --     56.9206                75.1193                81.3429
 Red. masses --     11.3404                13.3078                11.7854
 Frc consts  --      0.0216                 0.0442                 0.0459
 IR Inten    --      3.3873                 0.7800                 2.1134

                      4                      5                      6
                      A                      A                      A
 Frequencies --    113.1428               126.2455               209.1369
 Red. masses --     16.9612                 8.6367                 7.7789
 Frc consts  --      0.1279                 0.0811                 0.2005
 IR Inten    --      0.1739                 0.1302                 3.8517

                      7                      8                      9
                      A                      A                      A
 Frequencies --    225.1095               273.7668               288.8758
 Red. masses --      2.6445                 5.1141                12.5427
 Frc consts  --      0.0790                 0.2258                 0.6167
 IR Inten    --      3.1022                 5.9215                 0.1562

                     10                     11                     12
                      A                      A                      A
 Frequencies --    305.7981               357.1763               471.1398
 Red. masses --      2.2965                 4.5958                 2.8476
 Frc consts  --      0.1265                 0.3454                 0.3724
 IR Inten    --      2.2302                 3.8689                 0.0249

                     13                     14                     15
                      A                      A                      A
 Frequencies --    484.0133               623.0021               645.9972
 Red. masses --      5.6904                 3.2710                 1.3015
 Frc consts  --      0.7854                 0.7480                 0.3200
 IR Inten    --     21.0173                37.8253               117.1954

                     16                     17                     18
                      A                      A                      A
 Frequencies --    740.4886               758.7675               788.8175
 Red. masses --      7.1852                 3.9808                 5.5029
 Frc consts  --      2.3213                 1.3503                 2.0174
 IR Inten    --     21.1202                22.2837                14.7789

                     19                     20                     21
                      A                      A                      A
 Frequencies --    799.0212               842.6052               872.3533
 Red. masses --      3.8053                 4.9604                 1.7604
 Frc consts  --      1.4314                 2.0750                 0.7893
 IR Inten    --     44.0290                 7.3503                14.5401

                     22                     23                     24
                      A                      A                      A
 Frequencies --    874.9469               949.5872              1099.1133
 Red. masses --      2.1300                 1.7236                 1.9139
 Frc consts  --      0.9607                 0.9157                 1.3623
 IR Inten    --     30.1586                 8.8636                 0.5756

                     25                     26                     27
                      A                      A                      A
 Frequencies --   1099.2001              1195.9963              1204.8158
 Red. masses --      2.0259                 3.4465                 1.0299
 Frc consts  --      1.4422                 2.9046                 0.8808
 IR Inten    --      5.7109                80.9081                 0.0529

                     28                     29                     30
                      A                      A                      A
 Frequencies --   1247.5888              1250.9384              1299.9909
 Red. masses --      1.8760                 1.1384                 1.4995
 Frc consts  --      1.7204                 1.0496                 1.4931
 IR Inten    --    121.1256                 2.3077                19.7358

                     31                     32                     33
                      A                      A                      A
 Frequencies --   1337.6261              1343.1923              1368.0190
 Red. masses --      1.3020                 1.4708                 1.4432
 Frc consts  --      1.3726                 1.5634                 1.5913
 IR Inten    --     10.1708                21.0880                 6.5103

                     34                     35                     36
                      A                      A                      A
 Frequencies --   1423.0090              1462.3390              1463.5225
 Red. masses --      3.0149                 1.1130                 1.0886
 Frc consts  --      3.5970                 1.4024                 1.3737
 IR Inten    --     92.4055                17.2210                 7.8611

                     37                     38                     39
                      A                      A                      A
 Frequencies --   1477.2276              1909.2951              3112.5442
 Red. masses --      1.0934                10.9205                 1.0589
 Frc consts  --      1.4058                23.4552                 6.0439
 IR Inten    --     45.9543               277.8073                 2.9347

                     40                     41                     42
                      A                      A                      A
 Frequencies --   3116.8812              3136.1794              3189.5887
 Red. masses --      1.0592                 1.0606                 1.1130
 Frc consts  --      6.0630                 6.1460                 6.6714
 IR Inten    --      6.2135                 2.0091                 0.0002

                     43                     44                     45
                      A                      A                      A
 Frequencies --   3193.5320              3211.3372              3686.0838
 Red. masses --      1.1121                 1.1117                 1.0640
 Frc consts  --      6.6825                 6.7548                 8.5177
 IR Inten    --      0.0036                 0.2046               115.5385

 Optimization completed.
    -- Stationary point found.
 Normal termination of Gaussian 16 at Fri Mar 29 15:43:22 2024.
