 Gaussian 16, Revision B.01,
 Gaussian 16:  ES64L-G16RevB.01 20-Dec-2017

 --------------------------------------------------------------
 #T wB97XD//def2svpp Volume=tight Geom=AllCheckpoint Guess=Read
 --------------------------------------------------------------
 Structure from the checkpoint file:  "38.chk"
 -------
 Monomer
 -------
 Charge =  0 Multiplicity = 1

                         Standard orientation:
 ---------------------------------------------------------------------
 Center     Atomic      Atomic             Coordinates (Angstroms)
 Number     Number       Type             X           Y           Z
 ---------------------------------------------------------------------
      1          8           0       -2.387554   -0.662098   -0.938506
      2          6           0       -1.184683   -1.216377   -0.530183
      3          6           0       -0.110729   -0.149207   -0.220710
      4          6           0       -0.021932    0.943172   -1.294559
      5          8           0        0.793140    2.004168   -0.940017
      6          7           0       -0.399061    0.516628    1.107927
      7          8           0        0.527739    0.790006    1.818869
      8          8           0       -1.567466    0.765816    1.320044
      9          7           0        1.218624   -0.854268   -0.034013
     10          8           0        1.214134   -1.820765    0.684615
     11          8           0        2.177088   -0.414570   -0.628807
     12          1           0       -2.749333   -0.156003   -0.192924
     13          1           0       -0.803893   -1.828208   -1.364302
     14          1           0       -1.282144   -1.875470    0.351808
     15          1           0       -1.041210    1.329437   -1.435569
     16          1           0        0.279306    0.443125   -2.235751
     17          1           0        1.707753    1.684604   -0.897526
 ---------------------------------------------------------------------

 SCF Done:  E(RwB97XD) =  -677.816099728     A.U. after    1 cycles

 The electronic state is 1-A.
 Alpha  occ. eigenvalues --  -19.33421 -19.33337 -19.33322 -19.33095 -19.29013
 Alpha  occ. eigenvalues --  -19.28289 -14.72660 -14.72541 -10.43796 -10.39645
 Alpha  occ. eigenvalues --  -10.38932  -1.39064  -1.37522  -1.20768  -1.20655
 Alpha  occ. eigenvalues --   -1.16302  -1.15433  -1.00297  -0.83607  -0.82714
 Alpha  occ. eigenvalues --   -0.81612  -0.71018  -0.69910  -0.68928  -0.68049
 Alpha  occ. eigenvalues --   -0.65599  -0.64335  -0.63850  -0.62852  -0.60100
 Alpha  occ. eigenvalues --   -0.57316  -0.56585  -0.54252  -0.48315  -0.47198
 Alpha  occ. eigenvalues --   -0.44571  -0.43955  -0.43377  -0.43117  -0.42673
 Alpha  occ. eigenvalues --   -0.41819  -0.40186  -0.39252
 Alpha virt. eigenvalues --   -0.03591  -0.02787   0.11402   0.13374   0.14435
 Alpha virt. eigenvalues --    0.15814   0.17259   0.19431   0.21595   0.22942
 Alpha virt. eigenvalues --    0.23897   0.26236   0.29126   0.30527   0.35815

 Mulliken charges:
               1
     1  O   -0.462413
     2  C    0.090800
     3  C   -0.168018
     4  C    0.130954
     5  O   -0.469066
     6  N    0.271652
     7  O   -0.194306
     8  O   -0.253407
     9  N    0.248252
    10  O   -0.201614
    11  O   -0.235737
    12  H    0.343284
    13  H    0.139299
    14  H    0.148919
    15  H    0.142494
    16  H    0.130701
    17  H    0.338208
 Sum of Mulliken charges =  -0.00000

 Dipole moment (field-independent basis, Debye):
    X=             -0.9702    Y=             -1.0580    Z=             -1.9010  Tot=              2.3821
 Evaluate density.
 Using the total density.
 Monte-Carlo method of calculating molar volume:
 based on  0.001 e/bohr**3 density envelope.
 Number of points per bohr**3 =  100 CutOff= 1.00D-04
 Using the SCF density.
 There are      1782 points.  Will hold      1782 in memory.
 LenV=  1048223844 MDV=  1048576000.
 Box volume = 5665.444 fraction occupied=0.166
 Integrated density= 4.3640286066769868D+01 error=-4.2359713933230132D+01

 Normal termination of Gaussian 16 at Tue Apr  2 11:26:21 2024.
