 Gaussian 16, Revision B.01,
 Gaussian 16:  ES64L-G16RevB.01 20-Dec-2017

 --------------------------------------------------------------
 #T wB97XD//def2svpp Volume=tight Geom=AllCheckpoint Guess=Read
 --------------------------------------------------------------
 Structure from the checkpoint file:  "43.chk"
 -------
 Monomer
 -------
 Charge =  0 Multiplicity = 1

                         Standard orientation:
 ---------------------------------------------------------------------
 Center     Atomic      Atomic             Coordinates (Angstroms)
 Number     Number       Type             X           Y           Z
 ---------------------------------------------------------------------
      1          6           0       -0.592401    1.693246   -0.483092
      2          6           0       -0.002441    0.364390    0.000999
      3          6           0       -0.008798    0.332414    1.536016
      4          6           0       -0.830957   -0.810207   -0.557237
      5          7           0       -2.193792   -0.833642   -0.036430
      6          6           0        1.443171    0.247076   -0.521832
      7          7           0        2.137152   -0.937903   -0.037825
      8          1           0       -1.663300    1.745394   -0.226625
      9          1           0       -0.500115    1.790538   -1.580679
     10          1           0       -0.074964    2.554415   -0.022392
     11          1           0       -1.020933    0.536216    1.926003
     12          1           0        0.666067    1.104569    1.950114
     13          1           0        0.314441   -0.651715    1.921740
     14          1           0       -0.264638   -1.745242   -0.371808
     15          1           0       -0.895150   -0.688786   -1.654132
     16          1           0       -2.215890   -1.236507    0.900091
     17          1           0       -2.788517   -1.420328   -0.619168
     18          1           0        1.973394    1.196150   -0.279692
     19          1           0        1.406991    0.186549   -1.624914
     20          1           0        2.426172   -0.822102    0.932947
     21          1           0        2.981470   -1.109845   -0.580828
 ---------------------------------------------------------------------

 SCF Done:  E(RwB97XD) =  -308.108214407     A.U. after    1 cycles

 The electronic state is 1-A.
 Alpha  occ. eigenvalues --  -14.41249 -14.40604 -10.30687 -10.29618 -10.29201
 Alpha  occ. eigenvalues --  -10.27381 -10.26465  -0.97634  -0.95836  -0.87629
 Alpha  occ. eigenvalues --   -0.76665  -0.74511  -0.72624  -0.61165  -0.58341
 Alpha  occ. eigenvalues --   -0.56558  -0.54499  -0.53011  -0.51977  -0.48569
 Alpha  occ. eigenvalues --   -0.47714  -0.45738  -0.44462  -0.43413  -0.40344
 Alpha  occ. eigenvalues --   -0.39732  -0.39114  -0.32108  -0.29617
 Alpha virt. eigenvalues --    0.13015   0.15029   0.16490   0.17564   0.19707
 Alpha virt. eigenvalues --    0.20208   0.21219   0.22049   0.23480   0.24447
 Alpha virt. eigenvalues --    0.25557   0.26207   0.26582   0.27737   0.29306

 Mulliken charges:
               1
     1  C   -0.265884
     2  C   -0.218026
     3  C   -0.327920
     4  C   -0.056125
     5  N   -0.512928
     6  C   -0.045223
     7  N   -0.512962
     8  H    0.134958
     9  H    0.100914
    10  H    0.104079
    11  H    0.128183
    12  H    0.108995
    13  H    0.117328
    14  H    0.107246
    15  H    0.080755
    16  H    0.220110
    17  H    0.221030
    18  H    0.082142
    19  H    0.088185
    20  H    0.222422
    21  H    0.222719
 Sum of Mulliken charges =  -0.00000

 Dipole moment (field-independent basis, Debye):
    X=              1.2426    Y=             -0.6922    Z=              0.1831  Tot=              1.4341
 Evaluate density.
 Using the total density.
 Monte-Carlo method of calculating molar volume:
 based on  0.001 e/bohr**3 density envelope.
 Number of points per bohr**3 =  100 CutOff= 1.00D-04
 Using the SCF density.
 There are      1794 points.  Will hold      1794 in memory.
 LenV=  1048313310 MDV=  1048576000.
 Box volume = 5774.407 fraction occupied=0.176
 Integrated density= 5.2284094278093555D+01 error=-5.7159057219064451D+00

 Normal termination of Gaussian 16 at Tue Jun 27 12:10:28 2023.
