 Gaussian 16, Revision B.01,
 Gaussian 16:  ES64L-G16RevB.01 20-Dec-2017

 ----------------------------------------------------------------------
 # opt=(calcall,tight,modredundant) wb97xd scf=(qc,verytight) def2svpp
 int=grid=ultrafine
 ----------------------------------------------------------------------

 -----
 dimer
 -----
 Symbolic Z-matrix:
 Charge =  0 Multiplicity = 1

 SCF Done:  E(RwB97XD) =  -20667.2720252     a.u. after    8 cycles
 SCF Done:  E(RwB97XD) =  -20667.2719530     a.u. after   11 cycles
 SCF Done:  E(RwB97XD) =  -20667.2720471     a.u. after   11 cycles
 SCF Done:  E(RwB97XD) =  -20667.2720488     a.u. after    5 cycles
 SCF Done:  E(RwB97XD) =  -20667.2720518     a.u. after    3 cycles
 SCF Done:  E(RwB97XD) =  -20667.2720530     a.u. after    2 cycles
 SCF Done:  E(RwB97XD) =  -20667.2720529     a.u. after    2 cycles
 SCF Done:  E(RwB97XD) =  -20667.2720503     a.u. after    3 cycles
 SCF Done:  E(RwB97XD) =  -20667.2720517     a.u. after    3 cycles
 SCF Done:  E(RwB97XD) =  -20667.2720530     a.u. after    2 cycles
 SCF Done:  E(RwB97XD) =  -20667.2720505     a.u. after    2 cycles
 SCF Done:  E(RwB97XD) =  -20667.2720509     a.u. after    2 cycles
 SCF Done:  E(RwB97XD) =  -20667.2720507     a.u. after    2 cycles
 SCF Done:  E(RwB97XD) =  -20667.2720515     a.u. after    2 cycles
 SCF Done:  E(RwB97XD) =  -20667.2720510     a.u. after    2 cycles
 SCF Done:  E(RwB97XD) =  -20667.2720503     a.u. after    2 cycles
 SCF Done:  E(RwB97XD) =  -20667.2720508     a.u. after    2 cycles
 SCF Done:  E(RwB97XD) =  -20667.2720507     a.u. after    2 cycles
 SCF Done:  E(RwB97XD) =  -20667.2720507     a.u. after    2 cycles
 SCF Done:  E(RwB97XD) =  -20667.2720507     a.u. after    2 cycles
 Optimization completed on the basis of negligible forces.
    -- Stationary point found.

                         Standard orientation:
 ---------------------------------------------------------------------
 Center     Atomic      Atomic             Coordinates (Angstroms)
 Number     Number       Type             X           Y           Z
 ---------------------------------------------------------------------
      1         35           0       -2.006034   -0.976184    1.564797
      2          6           0       -2.599939    0.002009    0.001297
      3         35           0       -4.402577    0.651019    0.288422
      4         35           0       -1.412190    1.499621   -0.312577
      5         35           0       -2.576714   -1.174420   -1.540867
      6         35           0        4.402840   -0.708193    0.069135
      7          6           0        2.600059   -0.002297    0.000598
      8         35           0        2.004643    0.431441    1.792646
      9         35           0        2.576990    1.601010   -1.090901
     10         35           0        1.413021   -1.324245   -0.770980
 ---------------------------------------------------------------------

 The electronic state is 1-A.
 Alpha  occ. eigenvalues -- -483.08998-483.08997-483.08931-483.08930-483.08882
 Alpha  occ. eigenvalues -- -483.08882-483.08840-483.08839 -62.67223 -62.67222
 Alpha  occ. eigenvalues --  -62.67161 -62.67160 -62.67107 -62.67106 -62.67058
 Alpha  occ. eigenvalues --  -62.67057 -56.48039 -56.48037 -56.47978 -56.47977
 Alpha  occ. eigenvalues --  -56.47924 -56.47924 -56.47878 -56.47877 -56.47604
 Alpha  occ. eigenvalues --  -56.47603 -56.47601 -56.47600 -56.47539 -56.47539
 Alpha  occ. eigenvalues --  -56.47538 -56.47538 -56.47486 -56.47486 -56.47485
 Alpha  occ. eigenvalues --  -56.47484 -56.47439 -56.47437 -56.47436 -56.47436
 Alpha  occ. eigenvalues --  -10.50505 -10.50505  -8.84185  -8.84184  -8.84128
 Alpha  occ. eigenvalues --   -8.84126  -8.84070  -8.84069  -8.84017  -8.84016
 Alpha  occ. eigenvalues --   -6.66892  -6.66891  -6.66841  -6.66839  -6.66783
 Alpha  occ. eigenvalues --   -6.66783  -6.66733  -6.66733  -6.65325  -6.65324
 Alpha  occ. eigenvalues --   -6.65315  -6.65314  -6.65261  -6.65259  -6.65259
 Alpha  occ. eigenvalues --   -6.65258  -6.65203  -6.65203  -6.65200  -6.65199
 Alpha  occ. eigenvalues --   -6.65149  -6.65148  -6.65145  -6.65145  -2.77224
 Alpha  occ. eigenvalues --   -2.77223  -2.77172  -2.77171  -2.77114  -2.77114
 Alpha  occ. eigenvalues --   -2.77064  -2.77063  -2.76787  -2.76786  -2.76779
 Alpha  occ. eigenvalues --   -2.76778  -2.76729  -2.76728  -2.76728  -2.76727
 Alpha  occ. eigenvalues --   -2.76672  -2.76671  -2.76669  -2.76669  -2.76620
 Alpha  occ. eigenvalues --   -2.76620  -2.76617  -2.76617  -2.75529  -2.75529
 Alpha  occ. eigenvalues --   -2.75528  -2.75528  -2.75468  -2.75468  -2.75466
 Alpha  occ. eigenvalues --   -2.75466  -2.75409  -2.75409  -2.75409  -2.75409
 Alpha  occ. eigenvalues --   -2.75353  -2.75353  -2.75353  -2.75353  -1.01341
 Alpha  occ. eigenvalues --   -1.01239  -0.89570  -0.89558  -0.89524  -0.89433
 Alpha  occ. eigenvalues --   -0.89395  -0.89377  -0.69961  -0.69727  -0.55120
 Alpha  occ. eigenvalues --   -0.55060  -0.54915  -0.54885  -0.54713  -0.54696
 Alpha  occ. eigenvalues --   -0.43110  -0.42720  -0.42675  -0.42123  -0.41091
 Alpha  occ. eigenvalues --   -0.39804  -0.39782  -0.39770  -0.39742  -0.38358
 Alpha  occ. eigenvalues --   -0.36913  -0.36882  -0.36636  -0.36635  -0.36567
 Alpha  occ. eigenvalues --   -0.36552
 Alpha virt. eigenvalues --   -0.01903  -0.01832   0.04108   0.04223   0.04251
 Alpha virt. eigenvalues --    0.04338   0.04379   0.04539   0.24914   0.31058
 Alpha virt. eigenvalues --    0.37221   0.37300   0.38209   0.40158   0.40348

 Mulliken charges:
               1
     1  Br   0.076995
     2  C   -0.303099
     3  Br   0.075556
     4  Br   0.079993
     5  Br   0.070552
     6  Br   0.075588
     7  C   -0.303054
     8  Br   0.076957
     9  Br   0.070556
    10  Br   0.079955
 Sum of Mulliken charges =  -0.00000

 Dipole moment (field-independent basis, Debye):
    X=              0.0006    Y=             -0.0057    Z=              0.0355  Tot=              0.0360
 Quadrupole moment (field-independent basis, Debye-Ang):
   XX=           -152.7635   YY=           -152.5533   ZZ=           -152.4622
   XY=             -0.1946   XZ=             -0.0323   YZ=             -0.0160

  Exact polarizability: 166.128  -1.849 136.220  -0.298  -0.110 136.769
 Approx polarizability: 185.388  -0.448 180.565  -0.074   0.016 180.444

                      1                      2                      3
                      A                      A                      A
 Frequencies --     13.4275                16.4356                18.4333
 Red. masses --     78.5297                78.4650                78.4474
 Frc consts  --      0.0083                 0.0125                 0.0157
 IR Inten    --      0.0001                 0.0151                 0.0140

                      4                      5                      6
                      A                      A                      A
 Frequencies --     25.7151                32.0677                33.5820
 Red. masses --     73.7930                66.5075                75.3539
 Frc consts  --      0.0288                 0.0403                 0.0501
 IR Inten    --      0.0003                 0.0002                 0.0009

                      7                      8                      9
                      A                      A                      A
 Frequencies --    130.5201               131.2913               131.6548
 Red. masses --     78.9172                78.9163                78.9091
 Frc consts  --      0.7921                 0.8015                 0.8058
 IR Inten    --      0.0012                 0.0025                 0.0411

                     10                     11                     12
                      A                      A                      A
 Frequencies --    133.6383               190.9392               191.2077
 Red. masses --     78.8787                69.3380                69.2640
 Frc consts  --      0.8300                 1.4894                 1.4920
 IR Inten    --      0.0013                 0.1802                 0.0835

                     13                     14                     15
                      A                      A                      A
 Frequencies --    191.3709               191.4055               191.9519
 Red. masses --     69.3387                69.1642                69.1723
 Frc consts  --      1.4962                 1.4929                 1.5016
 IR Inten    --      0.0092                 0.0091                 0.0570

                     16                     17                     18
                      A                      A                      A
 Frequencies --    192.4250               282.8773               283.0742
 Red. masses --     69.6113                78.9141                78.9162
 Frc consts  --      1.5186                 3.7205                 3.7258
 IR Inten    --      0.0092                 0.0011                 0.0009

                     19                     20                     21
                      A                      A                      A
 Frequencies --    699.5335               701.4474               704.6989
 Red. masses --     12.6649                12.6612                12.6632
 Frc consts  --      3.6515                 3.6704                 3.7051
 IR Inten    --     10.3150                 0.7719               213.6573

                     22                     23                     24
                      A                      A                      A
 Frequencies --    706.6102               708.2543               708.4872
 Red. masses --     12.6636                12.6658                12.6594
 Frc consts  --      3.7253                 3.7433                 3.7439
 IR Inten    --    142.7966                 5.1244               145.6010

 - Thermochemistry -
 -------------------
 Temperature   298.150 Kelvin.  Pressure   1.00000 Atm.
 Atom     1 has atomic number 35 and mass  78.91834

 Molecular mass:   655.34669 amu.
 Principal axes and moments of inertia in atomic units:
                           1         2         3
     Eigenvalues --  5640.96127********************
           X            1.00000  -0.00000  -0.00000
           Y            0.00000   1.00000   0.00001
           Z            0.00000  -0.00001   1.00000
 This molecule is an asymmetric top.
 Rotational symmetry number  1.
 Warning -- assumption of classical behavior for rotation
           may cause significant error
 Rotational temperatures (Kelvin)      0.01535     0.00404     0.00404
 Rotational constants (GHZ):           0.31994     0.08410     0.08410
 Zero-point vibrational energy      39542.9 (Joules/Mol)
                                    9.45097 (Kcal/Mol)
 Warning -- explicit consideration of  18 degrees of freedom as
           vibrations may cause significant error
 Vibrational temperatures:     19.32    23.65    26.52    37.00    46.14
          (Kelvin)             48.32   187.79   188.90   189.42   192.28
                              274.72   275.11   275.34   275.39   276.18
                              276.86   407.00   407.28  1006.47  1009.23
                             1013.90  1016.65  1019.02  1019.36

 Zero-point correction=                           0.015061 (Hartree/Particle)
 Thermal correction to Energy=                    0.030942
 Thermal correction to Enthalpy=                  0.031886
 Thermal correction to Gibbs Free Energy=        -0.039384
 Sum of electronic and zero-point Energies=         -20667.256990
 Sum of electronic and thermal Energies=            -20667.241109
 Sum of electronic and thermal Enthalpies=          -20667.240164
 Sum of electronic and thermal Free Energies=       -20667.311435

                     E (Thermal)             CV                S
                      KCal/Mol        Cal/Mol-Kelvin    Cal/Mol-Kelvin
 Total                   19.417             44.997            150.002
 Electronic               0.000              0.000              0.000
 Translational            0.889              2.981             45.322
 Rotational               0.889              2.981             36.206
 Vibrational             17.639             39.035             68.475
 Vibration     1          0.593              1.987              7.426
 Vibration     2          0.593              1.986              7.024
 Vibration     3          0.593              1.986              6.796
 Vibration     4          0.593              1.985              6.135
 Vibration     5          0.594              1.983              5.697
 Vibration     6          0.594              1.983              5.606
 Vibration     7          0.612              1.923              2.938
 Vibration     8          0.612              1.922              2.927
 Vibration     9          0.612              1.922              2.922
 Vibration    10          0.613              1.920              2.893
 Vibration    11          0.634              1.852              2.219
 Vibration    12          0.634              1.852              2.216
 Vibration    13          0.634              1.852              2.215
 Vibration    14          0.634              1.852              2.214
 Vibration    15          0.634              1.851              2.209
 Vibration    16          0.634              1.850              2.204
 Vibration    17          0.682              1.705              1.516
 Vibration    18          0.682              1.705              1.515

 Normal termination of Gaussian 16 at Mon Sep 26 17:00:54 2022.
