 Gaussian 16, Revision B.01,
 Gaussian 16:  ES64L-G16RevB.01 20-Dec-2017

 ----------------------------------------------------------------------
 #T wB97XD/def2svpp opt=tight freq int(grid=ultrafine) scf=(verytight,q
 c)
 ----------------------------------------------------------------------
 -------
 comment
 -------
 Symbolic Z-matrix:
 Charge =  1 Multiplicity = 2

 SCF Done:  E(UwB97XD) =  -346.264338892     a.u. after    9 cycles
 SCF Done:  E(UwB97XD) =  -346.273883044     a.u. after    9 cycles
 SCF Done:  E(UwB97XD) =  -346.276297376     a.u. after    9 cycles
 SCF Done:  E(UwB97XD) =  -346.276495178     a.u. after    4 cycles
 SCF Done:  E(UwB97XD) =  -346.276680935     a.u. after    5 cycles
 SCF Done:  E(UwB97XD) =  -346.276805274     a.u. after    5 cycles
 SCF Done:  E(UwB97XD) =  -346.276851006     a.u. after    5 cycles
 SCF Done:  E(UwB97XD) =  -346.276909223     a.u. after    3 cycles
 SCF Done:  E(UwB97XD) =  -346.276962467     a.u. after    4 cycles
 SCF Done:  E(UwB97XD) =  -346.276970866     a.u. after    3 cycles
 SCF Done:  E(UwB97XD) =  -346.276971288     a.u. after    2 cycles
 SCF Done:  E(UwB97XD) =  -346.276971368     a.u. after    2 cycles
 SCF Done:  E(UwB97XD) =  -346.276971373     a.u. after    2 cycles
 Optimization completed.
    -- Stationary point found.
 Normal termination of Gaussian 16 at Mon Jul 10 19:28:16 2023.

 ---------------------------------------------------------------------
 #T Geom=AllCheck Guess=TCheck SCRF=Check GenChk UwB97XD/def2SVPP Freq
 ---------------------------------------------------------------------
 Structure from the checkpoint file:  "14.chk"
 -------
 comment
 -------
 Charge =  1 Multiplicity = 2

                         Standard orientation:
 ---------------------------------------------------------------------
 Center     Atomic      Atomic             Coordinates (Angstroms)
 Number     Number       Type             X           Y           Z
 ---------------------------------------------------------------------
      1          6           0        0.798833   -0.880396   -1.292489
      2          6           0        0.632049   -0.081851   -0.000005
      3          6           0        0.798833   -0.880782    1.292237
      4          6           0        1.445273    1.202078    0.000191
      5          6           0       -1.010332    0.259696    0.000021
      6          8           0       -1.862380   -0.699366    0.000009
      7          8           0       -1.248333    1.429233    0.000048
      8          1           0        1.879917   -1.106190   -1.372468
      9          1           0        0.525158   -0.297597   -2.187631
     10          1           0        0.264296   -1.844789   -1.299808
     11          1           0        1.879923   -1.106557    1.372178
     12          1           0        0.264346   -1.845206    1.299247
     13          1           0        0.525112   -0.298272    2.187554
     14          1           0        2.511336    0.918029    0.000160
     15          1           0        1.258112    1.811212    0.897959
     16          1           0        1.258128    1.811478   -0.897399
     17          1           0       -1.468567   -1.593518    0.000021
 ---------------------------------------------------------------------

 SCF Done:  E(UwB97XD) =  -346.276971373     a.u. after    1 cycles

 The electronic state is 2-A.
 Alpha  occ. eigenvalues --  -19.57607 -19.57056 -10.70422 -10.58031 -10.49678
 Alpha  occ. eigenvalues --  -10.49677 -10.47078  -1.49057  -1.41792  -1.14274
 Alpha  occ. eigenvalues --   -0.99636  -0.99413  -0.97748  -0.92735  -0.83598
 Alpha  occ. eigenvalues --   -0.81743  -0.80718  -0.75694  -0.73360  -0.72485
 Alpha  occ. eigenvalues --   -0.71817  -0.68733  -0.67404  -0.65557  -0.65342
 Alpha  occ. eigenvalues --   -0.63581  -0.63190  -0.60457
 Alpha virt. eigenvalues --   -0.15833  -0.08858  -0.03613  -0.01495   0.02264
 Alpha virt. eigenvalues --    0.02482   0.02654   0.03842   0.04961   0.06552
 Alpha virt. eigenvalues --    0.07865   0.08211   0.10005   0.11238   0.12121

  Beta  occ. eigenvalues --  -19.56893 -19.56154 -10.70358 -10.57708 -10.49631
  Beta  occ. eigenvalues --  -10.49629 -10.47097  -1.47542  -1.39480  -1.13175
  Beta  occ. eigenvalues --   -0.99309  -0.98604  -0.97519  -0.90144  -0.81274
  Beta  occ. eigenvalues --   -0.81110  -0.79707  -0.74371  -0.73120  -0.72003
  Beta  occ. eigenvalues --   -0.67442  -0.66745  -0.66544  -0.65218  -0.64313
  Beta  occ. eigenvalues --   -0.63099  -0.62998
  Beta virt. eigenvalues --   -0.35145  -0.15064  -0.08727  -0.02284  -0.01034
  Beta virt. eigenvalues --    0.02333   0.02709   0.02907   0.04072   0.05268
  Beta virt. eigenvalues --    0.06741   0.08172   0.08640   0.10026   0.11759

 Mulliken charges and spin densities:
               1          2
     1  C   -0.291544   0.026417
     2  C   -0.450442   0.214096
     3  C   -0.291566   0.026418
     4  C   -0.258779  -0.003808
     5  C    0.372921   0.028476
     6  O   -0.242333   0.047058
     7  O    0.050476   0.586519
     8  H    0.216231   0.034109
     9  H    0.200873   0.004481
    10  H    0.158718  -0.001761
    11  H    0.216232   0.034108
    12  H    0.158715  -0.001761
    13  H    0.200876   0.004482
    14  H    0.184493   0.004025
    15  H    0.182227   0.000782
    16  H    0.182229   0.000781
    17  H    0.410672  -0.004421
 Sum of Mulliken charges =   1.00000   1.00000

 Dipole moment (field-independent basis, Debye):
    X=              1.1325    Y=             -2.6883    Z=             -0.0000  Tot=              2.9171
  Exact polarizability:  69.756  -8.577  65.421  -0.001   0.000  52.687
 Approx polarizability:  70.927  -9.954  77.335  -0.001   0.001  54.131
                          Isotropic Fermi Contact Couplings
        Atom                 a.u.       MegaHertz       Gauss      10(-4) cm-1
     1  C(13)              0.00739       8.30232       2.96247       2.76936
     2  C(13)              0.02349      26.40878       9.42331       8.80902
     3  C(13)              0.00739       8.30322       2.96279       2.76966
     4  C(13)             -0.00842      -9.46552      -3.37753      -3.15736
     5  C(13)              0.03373      37.92421      13.53230      12.65015
     6  O(17)              0.01132      -6.86065      -2.44805      -2.28847

                      1                      2                      3
                      A                      A                      A
 Frequencies --     21.9752               186.8309               247.7887
 Red. masses --      4.2857                 1.3556                 2.3831
 Frc consts  --      0.0012                 0.0279                 0.0862
 IR Inten    --      6.8157                 0.2251                17.8961

                      4                      5                      6
                      A                      A                      A
 Frequencies --    253.3491               255.7533               263.3082
 Red. masses --      1.6696                 1.1890                 6.6393
 Frc consts  --      0.0631                 0.0458                 0.2712
 IR Inten    --      1.4661                 2.2410                45.1403

                      7                      8                      9
                      A                      A                      A
 Frequencies --    313.5141               332.1716               394.7813
 Red. masses --      1.1265                 3.5974                 2.2374
 Frc consts  --      0.0652                 0.2339                 0.2054
 IR Inten    --      1.5038                 8.9127                 2.3940

                     10                     11                     12
                      A                      A                      A
 Frequencies --    397.4790               453.9480               535.4441
 Red. masses --      2.5546                 2.9738                 1.2054
 Frc consts  --      0.2378                 0.3611                 0.2036
 IR Inten    --     39.5893                 4.6474               129.9552

                     13                     14                     15
                      A                      A                      A
 Frequencies --    570.6228               702.6095               776.7621
 Red. masses --      4.2006                 6.1529                 3.6682
 Frc consts  --      0.8059                 1.7896                 1.3040
 IR Inten    --      1.3047                 2.5884                 5.1942

                     16                     17                     18
                      A                      A                      A
 Frequencies --    911.7053               935.0655               981.3352
 Red. masses --      1.3281                 1.5291                 1.2452
 Frc consts  --      0.6504                 0.7877                 0.7065
 IR Inten    --      2.3420                 4.8539                 0.0400

                     19                     20                     21
                      A                      A                      A
 Frequencies --    995.9379              1034.1859              1115.9647
 Red. masses --      1.7745                 1.4087                 1.6659
 Frc consts  --      1.0370                 0.8877                 1.2224
 IR Inten    --      1.4676                23.5909               146.3504

                     22                     23                     24
                      A                      A                      A
 Frequencies --   1183.0800              1227.8041              1282.2681
 Red. masses --      1.2293                 2.5349                 2.8499
 Frc consts  --      1.0137                 2.2515                 2.7608
 IR Inten    --    199.6554                10.6244                15.0347

                     25                     26                     27
                      A                      A                      A
 Frequencies --   1306.8454              1377.5268              1399.6537
 Red. masses --      8.8771                 1.1356                 1.2147
 Frc consts  --      8.9324                 1.2696                 1.4020
 IR Inten    --    123.7300                25.4409                13.9991

                     28                     29                     30
                      A                      A                      A
 Frequencies --   1431.4536              1434.5285              1456.8943
 Red. masses --      1.1787                 1.0470                 1.0856
 Frc consts  --      1.4230                 1.2694                 1.3577
 IR Inten    --     33.7102                 5.2850                 9.7232

                     31                     32                     33
                      A                      A                      A
 Frequencies --   1465.5959              1472.4320              1489.3725
 Red. masses --      1.0636                 1.0552                 1.0650
 Frc consts  --      1.3461                 1.3479                 1.3919
 IR Inten    --      3.4156                16.6250                18.8195

                     34                     35                     36
                      A                      A                      A
 Frequencies --   1504.2992              1797.3255              3023.0458
 Red. masses --      1.0679                10.3010                 1.0394
 Frc consts  --      1.4238                19.6058                 5.5964
 IR Inten    --     12.6254               202.8511                13.1901

                     37                     38                     39
                      A                      A                      A
 Frequencies --   3028.3016              3058.6781              3119.0523
 Red. masses --      1.0401                 1.0383                 1.0975
 Frc consts  --      5.6200                 5.7235                 6.2905
 IR Inten    --     30.5363                 0.4580                 7.4602

                     40                     41                     42
                      A                      A                      A
 Frequencies --   3122.8538              3154.9382              3155.7385
 Red. masses --      1.0991                 1.1080                 1.1063
 Frc consts  --      6.3154                 6.4981                 6.4913
 IR Inten    --     38.0697                 1.2109                 2.1895

                     43                     44                     45
                      A                      A                      A
 Frequencies --   3157.3160              3176.3319              3656.3316
 Red. masses --      1.1066                 1.1088                 1.0672
 Frc consts  --      6.4997                 6.5909                 8.4061
 IR Inten    --      5.3487                 0.0009               135.5422

                           ! Non-Optimized Parameters !
 Normal termination of Gaussian 16 at Mon Jul 10 19:30:10 2023.
