 Gaussian 16, Revision B.01,
 Gaussian 16:  ES64L-G16RevB.01 20-Dec-2017

 ----------------------------------------------------------------------
 #T wB97XD/def2svpp opt=tight freq int(grid=ultrafine) scf=(verytight,q
 c) Volume=tight
 ----------------------------------------------------------------------
 -----
 Dimer
 -----
 Symbolic Z-matrix:
 Charge =  0 Multiplicity = 1

 SCF Done:  E(RwB97XD) =  -649.126239842     a.u. after    8 cycles
 SCF Done:  E(RwB97XD) =  -649.125633418     a.u. after   11 cycles
 SCF Done:  E(RwB97XD) =  -649.128264914     a.u. after    7 cycles
 SCF Done:  E(RwB97XD) =  -649.127655388     a.u. after   11 cycles
 SCF Done:  E(RwB97XD) =  -649.127933832     a.u. after    9 cycles
 SCF Done:  E(RwB97XD) =  -649.128652834     a.u. after    2 cycles
 SCF Done:  E(RwB97XD) =  -649.128866259     a.u. after    6 cycles
 SCF Done:  E(RwB97XD) =  -649.129015539     a.u. after    7 cycles
 SCF Done:  E(RwB97XD) =  -649.129086827     a.u. after    6 cycles
 SCF Done:  E(RwB97XD) =  -649.129141878     a.u. after    4 cycles
 SCF Done:  E(RwB97XD) =  -649.129264972     a.u. after    2 cycles
 SCF Done:  E(RwB97XD) =  -649.129265281     a.u. after    2 cycles
 SCF Done:  E(RwB97XD) =  -649.129265504     a.u. after    2 cycles
 SCF Done:  E(RwB97XD) =  -649.129265545     a.u. after    2 cycles
 SCF Done:  E(RwB97XD) =  -649.129265553     a.u. after    2 cycles
 SCF Done:  E(RwB97XD) =  -649.129265557     a.u. after    2 cycles
 SCF Done:  E(RwB97XD) =  -649.129265559     a.u. after    2 cycles
 SCF Done:  E(RwB97XD) =  -649.129265559     a.u. after    2 cycles
 SCF Done:  E(RwB97XD) =  -649.129265560     a.u. after    2 cycles
 Optimization completed.
    -- Stationary point found.
 Normal termination of Gaussian 16 at Sun Feb  5 16:08:29 2023.

 ---------------------------------------------------------------------
 #T Geom=AllCheck Guess=TCheck SCRF=Check GenChk RwB97XD/def2SVPP Freq
 ---------------------------------------------------------------------
 Structure from the checkpoint file:  "13.chk"
 -----
 Dimer
 -----
 Charge =  0 Multiplicity = 1

                         Standard orientation:
 ---------------------------------------------------------------------
 Center     Atomic      Atomic             Coordinates (Angstroms)
 Number     Number       Type             X           Y           Z
 ---------------------------------------------------------------------
      1          7           0        3.702519   -0.181744   -0.852887
      2          6           0        2.328614   -0.081804   -0.387271
      3          6           0        1.937787   -1.199710    0.594240
      4          8           0        0.557209   -1.354029    0.805284
      5          6           0        2.133421    1.313689    0.217773
      6          8           0        0.880000    1.491787    0.815057
      7          1           0        3.856574   -1.039113   -1.381691
      8          1           0        4.354415   -0.183910   -0.066830
      9          1           0        1.670302   -0.173422   -1.272081
     10          1           0        2.462280   -1.032682    1.559244
     11          1           0        2.297564   -2.162469    0.190476
     12          1           0        0.140210   -0.526451    1.145116
     13          1           0        2.337821    2.070278   -0.564947
     14          1           0        2.889615    1.457206    1.012981
     15          1           0        0.196739    1.491978    0.107769
     16          7           0       -1.709578    0.108803    1.490709
     17          6           0       -2.626910    0.105595    0.356454
     18          6           0       -2.330044    1.283375   -0.578227
     19          8           0       -1.036306    1.242530   -1.131828
     20          6           0       -2.526868   -1.233375   -0.393208
     21          8           0       -1.312778   -1.401640   -1.082505
     22          1           0       -2.006006   -0.550930    2.209436
     23          1           0       -1.623141    1.029946    1.919134
     24          1           0       -3.687999    0.219487    0.671253
     25          1           0       -2.419022    2.236810   -0.027945
     26          1           0       -3.096341    1.296843   -1.378966
     27          1           0       -0.912470    0.316999   -1.442670
     28          1           0       -3.334305   -1.280049   -1.144087
     29          1           0       -2.696699   -2.065821    0.320199
     30          1           0       -0.581120   -1.549923   -0.427776
 ---------------------------------------------------------------------

 SCF Done:  E(RwB97XD) =  -649.129265560     a.u. after    1 cycles

 The electronic state is 1-A.
 Alpha  occ. eigenvalues --  -19.25549 -19.24605 -19.24515 -19.22501 -14.43961
 Alpha  occ. eigenvalues --  -14.41626 -10.34791 -10.34438 -10.33581 -10.32970
 Alpha  occ. eigenvalues --  -10.32068 -10.31143  -1.13148  -1.10947  -1.10040
 Alpha  occ. eigenvalues --   -1.08487  -0.99472  -0.97690  -0.84370  -0.81312
 Alpha  occ. eigenvalues --   -0.77093  -0.75454  -0.69234  -0.68086  -0.62705
 Alpha  occ. eigenvalues --   -0.61170  -0.61036  -0.59322  -0.57926  -0.56427
 Alpha  occ. eigenvalues --   -0.55488  -0.54293  -0.53756  -0.52279  -0.50528
 Alpha  occ. eigenvalues --   -0.49925  -0.49484  -0.48507  -0.47345  -0.45288
 Alpha  occ. eigenvalues --   -0.44299  -0.42835  -0.41351  -0.39222  -0.36871
 Alpha  occ. eigenvalues --   -0.35928  -0.35538  -0.34014  -0.33475  -0.30780
 Alpha virt. eigenvalues --    0.11599   0.13819   0.15587   0.16392   0.17194
 Alpha virt. eigenvalues --    0.18047   0.18654   0.18868   0.19884   0.20877
 Alpha virt. eigenvalues --    0.21283   0.22851   0.23347   0.24277   0.24900

 Mulliken charges:
               1
     1  N   -0.500854
     2  C   -0.168627
     3  C    0.062476
     4  O   -0.553029
     5  C    0.058022
     6  O   -0.532646
     7  H    0.223065
     8  H    0.218752
     9  H    0.097178
    10  H    0.079961
    11  H    0.090952
    12  H    0.360869
    13  H    0.107948
    14  H    0.078707
    15  H    0.336467
    16  N   -0.528521
    17  C   -0.129242
    18  C    0.037959
    19  O   -0.527126
    20  C    0.041968
    21  O   -0.539060
    22  H    0.238296
    23  H    0.244934
    24  H    0.088772
    25  H    0.113753
    26  H    0.105031
    27  H    0.345128
    28  H    0.106855
    29  H    0.102634
    30  H    0.339379
 Sum of Mulliken charges =  -0.00000

 Dipole moment (field-independent basis, Debye):
    X=             -2.0462    Y=             -0.9790    Z=              1.9327  Tot=              2.9801
  Exact polarizability: 110.696  -0.842  87.722   2.522   0.554  82.589
 Approx polarizability: 104.016  -0.560  91.530   2.156   2.162  92.971
   1 Symmetry operations used in ECPInt.
 ECPInt:  NShTT=    5886 NPrTT=   23646 LenC2=    5775 LenP2D=   17163.
 LDataN:  DoStor=T MaxTD1= 6 Len=  172
 Calling FoFJK, ICntrl=    100127 FMM=F ISym2X=0 I1Cent= 0 IOpClX= 0 NMat=1 NMatS=1 NMatT=0.
 Full mass-weighted force constant matrix:
 Low frequencies ---   -7.2386    0.0001    0.0003    0.0011    3.8734    5.5383
 Low frequencies ---   33.2783   63.3100   89.1439
 Diagonal vibrational polarizability:

                      1                      2                      3
                      A                      A                      A
 Frequencies --     33.2084                63.3069                89.1068
 Red. masses --      4.5381                 3.9655                 4.4508
 Frc consts  --      0.0029                 0.0094                 0.0208
 IR Inten    --      2.3403                 2.6434                 6.5389

                      4                      5                      6
                      A                      A                      A
 Frequencies --    111.6258               121.7594               151.6902
 Red. masses --      4.3824                 2.8187                 2.5525
 Frc consts  --      0.0322                 0.0246                 0.0346
 IR Inten    --      3.2533                 3.5428                 4.3185

                      7                      8                      9
                      A                      A                      A
 Frequencies --    171.4466               229.0501               240.6474
 Red. masses --      4.1624                 3.5041                 3.5556
 Frc consts  --      0.0721                 0.1083                 0.1213
 IR Inten    --      0.4268                 6.1790                 0.7074

                     10                     11                     12
                      A                      A                      A
 Frequencies --    275.4386               292.3166               303.4346
 Red. masses --      1.4153                 3.1057                 2.3723
 Frc consts  --      0.0633                 0.1564                 0.1287
 IR Inten    --     19.7109                10.2881                20.7652

                     13                     14                     15
                      A                      A                      A
 Frequencies --    308.7796               332.8465               343.0830
 Red. masses --      4.9176                 3.2876                 2.8733
 Frc consts  --      0.2763                 0.2146                 0.1993
 IR Inten    --     19.1891                 3.8059                35.0404

                     16                     17                     18
                      A                      A                      A
 Frequencies --    377.2168               400.8129               408.1998
 Red. masses --      1.9579                 2.3082                 2.1758
 Frc consts  --      0.1641                 0.2185                 0.2136
 IR Inten    --      6.6965                 4.5234                 8.8219

                     19                     20                     21
                      A                      A                      A
 Frequencies --    454.7506               507.6612               559.8005
 Red. masses --      2.3068                 2.7162                 4.4693
 Frc consts  --      0.2811                 0.4124                 0.8252
 IR Inten    --      4.0824                11.5871                 0.5735

                     22                     23                     24
                      A                      A                      A
 Frequencies --    675.6236               744.2872               804.0612
 Red. masses --      1.0902                 1.6987                 2.6055
 Frc consts  --      0.2932                 0.5544                 0.9925
 IR Inten    --     16.0760               105.7947                29.2375

                     25                     26                     27
                      A                      A                      A
 Frequencies --    830.9051               841.5993               862.7375
 Red. masses --      1.4034                 1.1576                 1.3385
 Frc consts  --      0.5709                 0.4831                 0.5870
 IR Inten    --     65.5262               430.8690               258.0395

                     28                     29                     30
                      A                      A                      A
 Frequencies --    883.4112               917.6797               924.7359
 Red. masses --      2.0831                 1.3874                 1.6501
 Frc consts  --      0.9578                 0.6884                 0.8314
 IR Inten    --     71.9185                17.0648               145.2914

                     31                     32                     33
                      A                      A                      A
 Frequencies --    946.9793               989.0586               999.3865
 Red. masses --      1.9031                 1.6084                 1.7770
 Frc consts  --      1.0055                 0.9270                 1.0457
 IR Inten    --      3.4505                 3.1265                 1.3597

                     34                     35                     36
                      A                      A                      A
 Frequencies --   1035.0299              1068.7945              1112.9443
 Red. masses --      1.3866                 1.2249                 2.4930
 Frc consts  --      0.8752                 0.8244                 1.8193
 IR Inten    --     13.0800                21.7925                 5.3706

                     37                     38                     39
                      A                      A                      A
 Frequencies --   1135.5908              1144.6414              1155.9043
 Red. masses --      3.3699                 3.0263                 2.4431
 Frc consts  --      2.5604                 2.3362                 1.9233
 IR Inten    --     20.4783                17.8752                 2.9218

                     40                     41                     42
                      A                      A                      A
 Frequencies --   1159.9714              1161.8832              1186.7601
 Red. masses --      2.3404                 3.8273                 1.9693
 Frc consts  --      1.8554                 3.0442                 1.6341
 IR Inten    --     49.1392               337.1483                11.6213

                     43                     44                     45
                      A                      A                      A
 Frequencies --   1206.5765              1218.8758              1232.7164
 Red. masses --      1.1396                 1.7133                 1.3389
 Frc consts  --      0.9775                 1.4997                 1.1987
 IR Inten    --     57.0298                 1.8809                 0.6793

                     46                     47                     48
                      A                      A                      A
 Frequencies --   1259.1042              1300.5324              1307.5840
 Red. masses --      1.1021                 1.1954                 1.1304
 Frc consts  --      1.0294                 1.1913                 1.1387
 IR Inten    --     25.4790                 8.1861                20.4232

                     49                     50                     51
                      A                      A                      A
 Frequencies --   1348.9127              1372.4838              1395.1337
 Red. masses --      1.2749                 1.1847                 1.3462
 Frc consts  --      1.3668                 1.3149                 1.5437
 IR Inten    --     16.8345                31.5305                 4.6603

                     52                     53                     54
                      A                      A                      A
 Frequencies --   1398.5175              1412.1170              1422.5858
 Red. masses --      1.3136                 1.5572                 1.6369
 Frc consts  --      1.5138                 1.8296                 1.9518
 IR Inten    --      0.1669                11.8216                 8.2194

                     55                     56                     57
                      A                      A                      A
 Frequencies --   1426.0751              1438.3543              1461.0638
 Red. masses --      1.4891                 1.3977                 1.5416
 Frc consts  --      1.7843                 1.7037                 1.9389
 IR Inten    --     12.5537                24.4010                18.7659

                     58                     59                     60
                      A                      A                      A
 Frequencies --   1493.0403              1496.3179              1506.1476
 Red. masses --      1.1366                 1.0897                 1.1331
 Frc consts  --      1.4929                 1.4376                 1.5145
 IR Inten    --      1.8500                 0.8899                21.9752

                     61                     62                     63
                      A                      A                      A
 Frequencies --   1507.9327              1512.0052              1522.6491
 Red. masses --      1.0909                 1.1297                 1.1350
 Frc consts  --      1.4615                 1.5216                 1.5504
 IR Inten    --      1.1265                 3.3537                16.8297

                     64                     65                     66
                      A                      A                      A
 Frequencies --   1550.0034              1669.0108              1669.6735
 Red. masses --      1.1342                 1.1001                 1.1012
 Frc consts  --      1.6056                 1.8055                 1.8087
 IR Inten    --    252.5913                38.7584                35.4857

                     67                     68                     69
                      A                      A                      A
 Frequencies --   2964.5045              2991.1037              3009.0020
 Red. masses --      1.0830                 1.0681                 1.0683
 Frc consts  --      5.6075                 5.6304                 5.6986
 IR Inten    --     57.0948                90.0079                81.7529

                     70                     71                     72
                      A                      A                      A
 Frequencies --   3016.2949              3019.8688              3043.7425
 Red. masses --      1.0607                 1.0674                 1.0872
 Frc consts  --      5.6859                 5.7353                 5.9342
 IR Inten    --    119.5913                66.0031                20.4740

                     73                     74                     75
                      A                      A                      A
 Frequencies --   3076.5284              3087.1745              3090.4413
 Red. masses --      1.1077                 1.1015                 1.1034
 Frc consts  --      6.1773                 6.1850                 6.2093
 IR Inten    --     57.5141                43.4029                31.2964

                     76                     77                     78
                      A                      A                      A
 Frequencies --   3099.7672              3292.6847              3449.7822
 Red. masses --      1.1015                 1.0705                 1.0671
 Frc consts  --      6.2356                 6.8378                 7.4824
 IR Inten    --     58.3912               522.1626               676.9160

                     79                     80                     81
                      A                      A                      A
 Frequencies --   3458.5003              3489.7921              3502.3808
 Red. masses --      1.0669                 1.0512                 1.0656
 Frc consts  --      7.5186                 7.5426                 7.7015
 IR Inten    --    702.7742                 1.0974               462.9447

                     82                     83                     84
                      A                      A                      A
 Frequencies --   3505.1035              3580.1284              3590.9454
 Red. masses --      1.0511                 1.0930                 1.0952
 Frc consts  --      7.6082                 8.2543                 8.3205
 IR Inten    --      3.6511                 1.3737                 7.4256

 Optimization completed.
    -- Stationary point found.
 Normal termination of Gaussian 16 at Sun Feb  5 16:15:50 2023.
