 Gaussian 16, Revision B.01,
 Gaussian 16:  ES64L-G16RevB.01 20-Dec-2017

 --------------------------------------------------------------
 #T wB97XD//def2svpp Volume=tight Geom=AllCheckpoint Guess=Read
 --------------------------------------------------------------
 Structure from the checkpoint file:  "45.chk"
 -------
 Monomer
 -------
 Charge =  0 Multiplicity = 1

                         Standard orientation:
 ---------------------------------------------------------------------
 Center     Atomic      Atomic             Coordinates (Angstroms)
 Number     Number       Type             X           Y           Z
 ---------------------------------------------------------------------
      1          8           0       -2.129709    0.295725    1.266842
      2          6           0       -0.785030    0.095436    1.515783
      3          6           0        0.016376    0.007178    0.209279
      4          7           0       -0.387580    1.143447   -0.713303
      5          8           0       -0.827563    0.844715   -1.790617
      6          8           0       -0.238119    2.238223   -0.245196
      7          7           0        1.509374    0.084646    0.453757
      8          8           0        2.165589    0.767906   -0.279875
      9          8           0        1.889518   -0.592880    1.377229
     10          7           0       -0.222495   -1.302980   -0.525659
     11          8           0        0.664152   -1.705688   -1.223328
     12          8           0       -1.301563   -1.815511   -0.342389
     13          1           0       -2.496083   -0.513060    0.875738
     14          1           0       -0.559276   -0.810428    2.106246
     15          1           0       -0.406260    0.972096    2.062754
 ---------------------------------------------------------------------

 SCF Done:  E(RwB97XD) =  -767.665171532     A.U. after    1 cycles

 The electronic state is 1-A.
 Alpha  occ. eigenvalues --  -19.35790 -19.35706 -19.35169 -19.34886 -19.34693
 Alpha  occ. eigenvalues --  -19.34553 -19.30599 -14.75481 -14.74981 -14.74602
 Alpha  occ. eigenvalues --  -10.49537 -10.41651  -1.42062  -1.39983  -1.39493
 Alpha  occ. eigenvalues --   -1.23551  -1.23027  -1.22595  -1.18041  -1.04331
 Alpha  occ. eigenvalues --   -0.86177  -0.85974  -0.84674  -0.72975  -0.72022
 Alpha  occ. eigenvalues --   -0.71769  -0.70614  -0.68725  -0.67551  -0.66422
 Alpha  occ. eigenvalues --   -0.65642  -0.65399  -0.64984  -0.60654  -0.58442
 Alpha  occ. eigenvalues --   -0.50147  -0.47779  -0.46754  -0.45816  -0.45750
 Alpha  occ. eigenvalues --   -0.45330  -0.44838  -0.44286  -0.43513  -0.43473
 Alpha  occ. eigenvalues --   -0.41893
 Alpha virt. eigenvalues --   -0.06049  -0.05032  -0.04211   0.10576   0.12036
 Alpha virt. eigenvalues --    0.15517   0.15641   0.18589   0.20603   0.23806
 Alpha virt. eigenvalues --    0.26564   0.32062   0.32537   0.33343   0.41331

 Mulliken charges:
               1
     1  O   -0.456757
     2  C    0.098953
     3  C    0.090470
     4  N    0.262082
     5  O   -0.195630
     6  O   -0.184038
     7  N    0.243691
     8  O   -0.175159
     9  O   -0.204015
    10  N    0.246917
    11  O   -0.170433
    12  O   -0.223255
    13  H    0.345346
    14  H    0.159477
    15  H    0.162349
 Sum of Mulliken charges =  -0.00000

 Dipole moment (field-independent basis, Debye):
    X=             -1.1040    Y=             -1.0791    Z=              2.3112  Tot=              2.7794
 Evaluate density.
 Using the total density.
 Monte-Carlo method of calculating molar volume:
 based on  0.001 e/bohr**3 density envelope.
 Number of points per bohr**3 =  100 CutOff= 1.00D-04
 Using the SCF density.
 There are      1779 points.  Will hold      1779 in memory.
 LenV=  1048205374 MDV=  1048576000.
 Box volume = 5636.238 fraction occupied=0.187
 Integrated density= 6.7297077412105068D+01 error=-2.4702922587894932D+01

 Normal termination of Gaussian 16 at Mon Jul 10 17:42:04 2023.
