 Gaussian 16, Revision B.01,
 Gaussian 16:  ES64L-G16RevB.01 20-Dec-2017

 --------------------------------------------------------------
 #T wB97XD//def2svpp Volume=tight Geom=AllCheckpoint Guess=Read
 --------------------------------------------------------------
 Structure from the checkpoint file:  "35.chk"
 -------
 Monomer
 -------
 Charge =  0 Multiplicity = 1

                         Standard orientation:
 ---------------------------------------------------------------------
 Center     Atomic      Atomic             Coordinates (Angstroms)
 Number     Number       Type             X           Y           Z
 ---------------------------------------------------------------------
      1          6           0       -0.858360    1.648333   -1.045566
      2          6           0       -0.073433    0.562791   -0.300236
      3          6           0        1.169934    0.166764   -1.120278
      4          8           0        1.964440   -0.813170   -0.495337
      5          6           0        0.351065    1.081379    1.095402
      6          8           0        0.929063    0.091905    1.890112
      7          6           0       -0.927178   -0.678701   -0.093005
      8          8           0       -2.100948   -0.419446    0.484127
      9          8           0       -0.603369   -1.802060   -0.402308
     10          1           0       -1.170353    1.303332   -2.046418
     11          1           0       -0.227208    2.544547   -1.177425
     12          1           0       -1.761082    1.940441   -0.486230
     13          1           0        1.806960    1.058349   -1.245349
     14          1           0        0.857653   -0.165264   -2.129879
     15          1           0        1.433475   -1.629182   -0.495009
     16          1           0       -0.535625    1.455261    1.633289
     17          1           0        1.033545    1.945251    0.936261
     18          1           0        1.632212   -0.324165    1.358320
     19          1           0       -2.555243   -1.269791    0.621789
 ---------------------------------------------------------------------

 SCF Done:  E(RwB97XD) =  -496.909491755     A.U. after    1 cycles

 The electronic state is 1-A.
 Alpha  occ. eigenvalues --  -19.31907 -19.26480 -19.26257 -19.23945 -10.44672
 Alpha  occ. eigenvalues --  -10.35148 -10.34504 -10.32983 -10.30612  -1.22327
 Alpha  occ. eigenvalues --   -1.13625  -1.11938  -1.10459  -0.92402  -0.78141
 Alpha  occ. eigenvalues --   -0.77722  -0.76006  -0.68660  -0.63155  -0.60482
 Alpha  occ. eigenvalues --   -0.59331  -0.57179  -0.55011  -0.54683  -0.52560
 Alpha  occ. eigenvalues --   -0.50846  -0.50233  -0.48439  -0.47950  -0.46876
 Alpha  occ. eigenvalues --   -0.43951  -0.42184  -0.41355  -0.37950  -0.36004
 Alpha  occ. eigenvalues --   -0.34807
 Alpha virt. eigenvalues --    0.07012   0.12425   0.14002   0.15673   0.16771
 Alpha virt. eigenvalues --    0.18935   0.20950   0.21683   0.22923   0.23323
 Alpha virt. eigenvalues --    0.24440   0.27047   0.28744   0.30024   0.31009

 Mulliken charges:
               1
     1  C   -0.275936
     2  C   -0.403019
     3  C    0.078667
     4  O   -0.509452
     5  C    0.092331
     6  O   -0.499539
     7  C    0.282238
     8  O   -0.358167
     9  O   -0.262815
    10  H    0.130073
    11  H    0.130267
    12  H    0.147869
    13  H    0.110951
    14  H    0.109264
    15  H    0.344307
    16  H    0.116405
    17  H    0.095907
    18  H    0.325617
    19  H    0.345032
 Sum of Mulliken charges =  -0.00000

 Dipole moment (field-independent basis, Debye):
    X=             -1.9787    Y=              1.1582    Z=             -1.6788  Tot=              2.8417
 Evaluate density.
 Using the total density.
 Monte-Carlo method of calculating molar volume:
 based on  0.001 e/bohr**3 density envelope.
 Number of points per bohr**3 =  100 CutOff= 1.00D-04
 Using the SCF density.
 There are      1762 points.  Will hold      1762 in memory.
 LenV=  1048273021 MDV=  1048576000.
 Box volume = 5474.083 fraction occupied=0.186
 Integrated density= 5.5238508032308779D+01 error=-1.6761491967691221D+01

 Normal termination of Gaussian 16 at Thu Feb  2 13:09:22 2023.
