 Gaussian 16, Revision B.01,
 Gaussian 16:  ES64L-G16RevB.01 20-Dec-2017

 ----------------------------------------------------------------------
 #T wB97XD/def2svpp opt=(calcfc,tight) freq int(grid=ultrafine) scf=(ve
 rytight,qc) Volume=tight
 ----------------------------------------------------------------------
 -----
 Dimer
 -----
 Symbolic Z-matrix:
 Charge =  0 Multiplicity = 1

 SCF Done:  E(RwB97XD) =  -395.098422161     a.u. after    6 cycles
 SCF Done:  E(RwB97XD) =  -395.098422367     a.u. after    2 cycles
 SCF Done:  E(RwB97XD) =  -395.098422247     a.u. after    2 cycles
 SCF Done:  E(RwB97XD) =  -395.098422290     a.u. after    2 cycles
 SCF Done:  E(RwB97XD) =  -395.098422381     a.u. after    2 cycles
 SCF Done:  E(RwB97XD) =  -395.098422280     a.u. after    2 cycles
 SCF Done:  E(RwB97XD) =  -395.098422381     a.u. after    2 cycles
 SCF Done:  E(RwB97XD) =  -395.098422177     a.u. after    2 cycles
 SCF Done:  E(RwB97XD) =  -395.098422378     a.u. after    2 cycles
 Optimization completed.
    -- Stationary point found.
 Normal termination of Gaussian 16 at Mon Apr  1 17:57:12 2024.

 ---------------------------------------------------------------------
 #T Geom=AllCheck Guess=TCheck SCRF=Check GenChk RwB97XD/def2SVPP Freq
 ---------------------------------------------------------------------
 Structure from the checkpoint file:  "7.chk"
 -----
 Dimer
 -----
 Charge =  0 Multiplicity = 1

                         Standard orientation:
 ---------------------------------------------------------------------
 Center     Atomic      Atomic             Coordinates (Angstroms)
 Number     Number       Type             X           Y           Z
 ---------------------------------------------------------------------
      1          6           0       -1.864427    2.549836   -0.325905
      2          6           0       -1.903597    1.276404    0.514164
      3          6           0       -1.867634   -0.002412   -0.321144
      4          6           0       -1.900289   -1.281320    0.514157
      5          6           0       -1.857806   -2.554643   -0.325916
      6          1           0       -2.730718    2.602147   -1.009478
      7          1           0       -0.949440    2.591996   -0.943076
      8          1           0       -1.881244    3.452493    0.308741
      9          1           0       -2.814692    1.275294    1.141595
     10          1           0       -1.050316    1.272388    1.218362
     11          1           0       -0.955968   -0.001230   -0.949179
     12          1           0       -2.722551   -0.003516   -1.025256
     13          1           0       -2.811391   -1.282575    1.141578
     14          1           0       -1.047028   -1.275096    1.218364
     15          1           0       -2.723940   -2.609190   -1.009513
     16          1           0       -1.872307   -3.457344    0.308725
     17          1           0       -0.942697   -2.594437   -0.943063
     18          6           0        1.857798    2.554642    0.325918
     19          6           0        1.900282    1.281321   -0.514157
     20          6           0        1.867633    0.002412    0.321142
     21          6           0        1.903602   -1.276404   -0.514164
     22          6           0        1.864439   -2.549836    0.325905
     23          1           0        2.723938    2.609194    1.009507
     24          1           0        0.942694    2.594431    0.943074
     25          1           0        1.872288    3.457343   -0.308723
     26          1           0        2.811382    1.282578   -1.141582
     27          1           0        1.047020    1.275095   -1.218361
     28          1           0        0.955965    0.001227    0.949175
     29          1           0        2.722549    0.003518    1.025255
     30          1           0        2.814697   -1.275289   -1.141596
     31          1           0        1.050320   -1.272393   -1.218362
     32          1           0        0.949451   -2.592000    0.943075
     33          1           0        2.730729   -2.602142    1.009479
     34          1           0        1.881261   -3.452493   -0.308741
 ---------------------------------------------------------------------

 SCF Done:  E(RwB97XD) =  -395.098422378     a.u. after    1 cycles

 The electronic state is 1-A.
 Alpha  occ. eigenvalues --  -10.28587 -10.28587 -10.28585 -10.28584 -10.28386
 Alpha  occ. eigenvalues --  -10.28385 -10.27886 -10.27885 -10.27885 -10.27885
 Alpha  occ. eigenvalues --   -0.89664  -0.89117  -0.84358  -0.83854  -0.76556
 Alpha  occ. eigenvalues --   -0.76098  -0.68329  -0.68320  -0.66446  -0.65738
 Alpha  occ. eigenvalues --   -0.57780  -0.54959  -0.52917  -0.52678  -0.52289
 Alpha  occ. eigenvalues --   -0.50541  -0.49170  -0.48952  -0.47751  -0.47642
 Alpha  occ. eigenvalues --   -0.46731  -0.45094  -0.43583  -0.43396  -0.41707
 Alpha  occ. eigenvalues --   -0.41181  -0.41145  -0.41043  -0.40100  -0.39857
 Alpha  occ. eigenvalues --   -0.39711  -0.38803
 Alpha virt. eigenvalues --    0.12271   0.13436   0.15087   0.15656   0.16015
 Alpha virt. eigenvalues --    0.17503   0.17750   0.18989   0.19576   0.20842
 Alpha virt. eigenvalues --    0.21213   0.22909   0.22943   0.22984   0.23140

 Mulliken charges:
               1
     1  C   -0.320112
     2  C   -0.228386
     3  C   -0.244352
     4  C   -0.228384
     5  C   -0.320111
     6  H    0.114013
     7  H    0.122705
     8  H    0.120245
     9  H    0.100941
    10  H    0.111764
    11  H    0.104792
    12  H    0.097221
    13  H    0.100941
    14  H    0.111762
    15  H    0.114012
    16  H    0.120244
    17  H    0.122705
    18  C   -0.320111
    19  C   -0.228384
    20  C   -0.244352
    21  C   -0.228386
    22  C   -0.320112
    23  H    0.114012
    24  H    0.122705
    25  H    0.120244
    26  H    0.100941
    27  H    0.111762
    28  H    0.104792
    29  H    0.097220
    30  H    0.100941
    31  H    0.111764
    32  H    0.122704
    33  H    0.114013
    34  H    0.120245
 Sum of Mulliken charges =  -0.00000

 Dipole moment (field-independent basis, Debye):
    X=             -0.0000    Y=              0.0000    Z=             -0.0000  Tot=              0.0000
  Exact polarizability: 113.803  -0.010 122.254   0.339   0.000  96.177
 Approx polarizability: 113.819   0.005 110.107   0.016   0.000 111.166
   1 Symmetry operations used in ECPInt.
 ECPInt:  NShTT=    5886 NPrTT=   23638 LenC2=    5826 LenP2D=   17581.
 LDataN:  DoStor=T MaxTD1= 6 Len=  172
 Calling FoFJK, ICntrl=    100127 FMM=F ISym2X=0 I1Cent= 0 IOpClX= 0 NMat=1 NMatS=1 NMatT=0.
 Full mass-weighted force constant matrix:
 Low frequencies ---  -10.2527   -7.2000   -0.0005    0.0004    0.0006    3.4508
 Low frequencies ---   40.8158   69.2138   82.9813
 Diagonal vibrational polarizability:

                      1                      2                      3
                      A                      A                      A
 Frequencies --     40.8158                69.1920                82.9813
 Red. masses --      3.1391                 3.6577                 2.9879
 Frc consts  --      0.0031                 0.0103                 0.0121
 IR Inten    --      0.0001                 0.0000                 0.0000

                      4                      5                      6
                      A                      A                      A
 Frequencies --     85.7116               103.7428               130.5713
 Red. masses --      1.7555                 3.1031                 1.8237
 Frc consts  --      0.0076                 0.0197                 0.0183
 IR Inten    --      0.0000                 0.0000                 0.0247

                      7                      8                      9
                      A                      A                      A
 Frequencies --    149.7984               153.5626               154.8068
 Red. masses --      2.4821                 1.6245                 1.6167
 Frc consts  --      0.0328                 0.0226                 0.0228
 IR Inten    --      0.0000                 0.0114                 0.0201

                     10                     11                     12
                      A                      A                      A
 Frequencies --    158.6044               183.7414               190.0832
 Red. masses --      1.3943                 2.4743                 2.4916
 Frc consts  --      0.0207                 0.0492                 0.0530
 IR Inten    --      0.0000                 0.0447                 0.0000

                     13                     14                     15
                      A                      A                      A
 Frequencies --    261.2687               263.1347               268.3535
 Red. masses --      1.1523                 1.0839                 1.2494
 Frc consts  --      0.0463                 0.0442                 0.0530
 IR Inten    --      0.0172                 0.0000                 0.0000

                     16                     17                     18
                      A                      A                      A
 Frequencies --    269.4033               407.1419               408.2591
 Red. masses --      1.1559                 2.3280                 2.3449
 Frc consts  --      0.0494                 0.2274                 0.2303
 IR Inten    --      0.0065                 0.0121                 0.0000

                     19                     20                     21
                      A                      A                      A
 Frequencies --    408.8010               409.3955               738.5999
 Red. masses --      3.3538                 3.3606                 1.0643
 Frc consts  --      0.3302                 0.3319                 0.3421
 IR Inten    --      0.0000                 0.0528                20.3194

                     22                     23                     24
                      A                      A                      A
 Frequencies --    748.5709               771.5708               781.6126
 Red. masses --      1.0562                 1.1132                 1.1061
 Frc consts  --      0.3487                 0.3905                 0.3981
 IR Inten    --      0.0000                 0.0000                 0.1392

                     25                     26                     27
                      A                      A                      A
 Frequencies --    877.5400               880.1834               893.0482
 Red. masses --      1.1602                 1.1589                 1.6822
 Frc consts  --      0.5264                 0.5290                 0.7905
 IR Inten    --      6.6999                 0.0000                 2.3579

                     28                     29                     30
                      A                      A                      A
 Frequencies --    893.8187               950.4182               950.8533
 Red. masses --      1.6784                 1.8913                 1.8855
 Frc consts  --      0.7900                 1.0066                 1.0044
 IR Inten    --      0.0000                 0.0000                 4.4897

                     31                     32                     33
                      A                      A                      A
 Frequencies --   1003.0285              1007.9020              1061.1367
 Red. masses --      1.1239                 1.1280                 1.9643
 Frc consts  --      0.6662                 0.6751                 1.3032
 IR Inten    --      0.0000                 0.0453                 3.5042

                     34                     35                     36
                      A                      A                      A
 Frequencies --   1061.3754              1081.4435              1081.5848
 Red. masses --      1.9573                 2.6068                 2.6075
 Frc consts  --      1.2991                 1.7963                 1.7972
 IR Inten    --      0.0000                 0.0000                 1.2909

                     37                     38                     39
                      A                      A                      A
 Frequencies --   1105.7714              1107.6529              1178.3365
 Red. masses --      1.8425                 1.8605                 2.3485
 Frc consts  --      1.3273                 1.3449                 1.9213
 IR Inten    --      0.0000                 0.8093                 0.0000

                     40                     41                     42
                      A                      A                      A
 Frequencies --   1178.7936              1213.2746              1216.1275
 Red. masses --      2.3224                 1.8131                 1.8112
 Frc consts  --      1.9014                 1.5725                 1.5783
 IR Inten    --      2.8181                 0.0000                 1.4933

                     43                     44                     45
                      A                      A                      A
 Frequencies --   1274.0384              1276.9648              1298.3756
 Red. masses --      1.3185                 1.3105                 1.3214
 Frc consts  --      1.2610                 1.2591                 1.3125
 IR Inten    --      0.0000                 0.0032                 3.5923

                     46                     47                     48
                      A                      A                      A
 Frequencies --   1303.2968              1335.1887              1338.2063
 Red. masses --      1.3079                 1.1507                 1.1514
 Frc consts  --      1.3089                 1.2086                 1.2148
 IR Inten    --      0.0000                 0.3613                 0.0000

                     49                     50                     51
                      A                      A                      A
 Frequencies --   1339.6089              1343.0600              1380.8562
 Red. masses --      1.0505                 1.0506                 1.3841
 Frc consts  --      1.1107                 1.1165                 1.5550
 IR Inten    --      0.0141                 0.0000                 0.0000

                     52                     53                     54
                      A                      A                      A
 Frequencies --   1385.0657              1417.2108              1419.7721
 Red. masses --      1.3670                 1.2507                 1.2525
 Frc consts  --      1.5451                 1.4800                 1.4875
 IR Inten    --      0.6187                 4.2007                 0.0000

                     55                     56                     57
                      A                      A                      A
 Frequencies --   1428.6488              1430.1050              1440.8116
 Red. masses --      1.3467                 1.3691                 1.7627
 Frc consts  --      1.6194                 1.6497                 2.1560
 IR Inten    --      0.0000                 7.5946                 0.0000

                     58                     59                     60
                      A                      A                      A
 Frequencies --   1441.3212              1478.8151              1482.0009
 Red. masses --      1.7386                 1.0736                 1.0618
 Frc consts  --      2.1280                 1.3834                 1.3740
 IR Inten    --      6.9512                 2.2089                 0.0000

                     61                     62                     63
                      A                      A                      A
 Frequencies --   1488.5191              1489.6104              1490.9648
 Red. masses --      1.0390                 1.0458                 1.0698
 Frc consts  --      1.3564                 1.3672                 1.4011
 IR Inten    --     35.3311                 0.0000                 0.0532

                     64                     65                     66
                      A                      A                      A
 Frequencies --   1491.7763              1492.0005              1493.4973
 Red. masses --      1.0586                 1.0752                 1.0674
 Frc consts  --      1.3880                 1.4102                 1.4028
 IR Inten    --      6.9501                 0.0000                 0.0000

                     67                     68                     69
                      A                      A                      A
 Frequencies --   1496.1873              1498.8934              1501.9990
 Red. masses --      1.0448                 1.0535                 1.0908
 Frc consts  --      1.3780                 1.3945                 1.4499
 IR Inten    --      1.5203                 0.0000                 0.0000

                     70                     71                     72
                      A                      A                      A
 Frequencies --   1505.3779              1505.5259              1510.3859
 Red. masses --      1.0693                 1.0839                 1.0945
 Frc consts  --      1.4277                 1.4475                 1.4712
 IR Inten    --      0.0000                 1.6340                30.5282

                     73                     74                     75
                      A                      A                      A
 Frequencies --   3018.6223              3020.6270              3027.6301
 Red. masses --      1.0616                 1.0613                 1.0499
 Frc consts  --      5.6995                 5.7055                 5.6704
 IR Inten    --      2.7062                 0.0000                36.0593

                     76                     77                     78
                      A                      A                      A
 Frequencies --   3027.8520              3028.8965              3029.3018
 Red. masses --      1.0608                 1.0396                 1.0414
 Frc consts  --      5.7299                 5.6191                 5.6308
 IR Inten    --      0.0003                 0.0000                 0.0000

                     79                     80                     81
                      A                      A                      A
 Frequencies --   3029.5782              3029.9119              3032.5951
 Red. masses --      1.0500                 1.0394                 1.0603
 Frc consts  --      5.6781                 5.6220                 5.7451
 IR Inten    --     38.2513                28.9834                 0.0000

                     82                     83                     84
                      A                      A                      A
 Frequencies --   3034.3322              3058.6650              3063.6448
 Red. masses --      1.0638                 1.1016                 1.0991
 Frc consts  --      5.7711                 6.0722                 6.0782
 IR Inten    --    146.9795                 0.0000                 3.4123

                     85                     86                     87
                      A                      A                      A
 Frequencies --   3074.7066              3075.5864              3086.1260
 Red. masses --      1.1046                 1.1048                 1.1060
 Frc consts  --      6.1524                 6.1576                 6.2065
 IR Inten    --      0.0000                 0.0721               155.3220

                     88                     89                     90
                      A                      A                      A
 Frequencies --   3092.4075              3118.4460              3119.2440
 Red. masses --      1.1050                 1.1051                 1.1047
 Frc consts  --      6.2259                 6.3316                 6.3327
 IR Inten    --      0.0000                 0.0000               189.8440

                     91                     92                     93
                      A                      A                      A
 Frequencies --   3120.6238              3121.4806              3125.4134
 Red. masses --      1.1045                 1.1042                 1.1045
 Frc consts  --      6.3375                 6.3388                 6.3569
 IR Inten    --      4.7490                 0.0000                 0.0001

                     94                     95                     96
                      A                      A                      A
 Frequencies --   3125.5688              3125.9612              3126.3640
 Red. masses --      1.1042                 1.1045                 1.1042
 Frc consts  --      6.3559                 6.3591                 6.3588
 IR Inten    --     72.8729                33.8710                 0.0000

                           ! Non-Optimized Parameters !
 Normal termination of Gaussian 16 at Mon Apr  1 18:03:01 2024.
