 Gaussian 16, Revision B.01,
 Gaussian 16:  ES64L-G16RevB.01 20-Dec-2017

 ----------------------------------------------------------------------
 #T wB97XD/def2svpp opt=tight freq int(grid=ultrafine) scf=(verytight,q
 c)
 ----------------------------------------------------------------------
 --------------
 Comment gs min
 --------------
 Symbolic Z-matrix:
 Charge =  0 Multiplicity = 1

 SCF Done:  E(RwB97XD) =  -2232.92306440     a.u. after    7 cycles
 SCF Done:  E(RwB97XD) =  -2232.92763325     a.u. after    8 cycles
 SCF Done:  E(RwB97XD) =  -2232.92788413     a.u. after    5 cycles
 SCF Done:  E(RwB97XD) =  -2232.92793697     a.u. after    3 cycles
 SCF Done:  E(RwB97XD) =  -2232.92798411     a.u. after    3 cycles
 SCF Done:  E(RwB97XD) =  -2232.92800316     a.u. after    3 cycles
 SCF Done:  E(RwB97XD) =  -2232.92803931     a.u. after    3 cycles
 SCF Done:  E(RwB97XD) =  -2232.92812406     a.u. after    5 cycles
 SCF Done:  E(RwB97XD) =  -2232.92814919     a.u. after    3 cycles
 SCF Done:  E(RwB97XD) =  -2232.92820237     a.u. after    5 cycles
 SCF Done:  E(RwB97XD) =  -2232.92836035     a.u. after    2 cycles
 SCF Done:  E(RwB97XD) =  -2232.92836044     a.u. after    2 cycles
 SCF Done:  E(RwB97XD) =  -2232.92836048     a.u. after    2 cycles
 SCF Done:  E(RwB97XD) =  -2232.92836050     a.u. after    2 cycles
 SCF Done:  E(RwB97XD) =  -2232.92836054     a.u. after    2 cycles
 SCF Done:  E(RwB97XD) =  -2232.92836061     a.u. after    2 cycles
 SCF Done:  E(RwB97XD) =  -2232.92836064     a.u. after    2 cycles
 SCF Done:  E(RwB97XD) =  -2232.92836066     a.u. after    2 cycles
 SCF Done:  E(RwB97XD) =  -2232.92836066     a.u. after    2 cycles
 Optimization completed.
    -- Stationary point found.
 Normal termination of Gaussian 16 at Tue Jun 27 02:56:37 2023.

 ---------------------------------------------------------------------
 #T Geom=AllCheck Guess=TCheck SCRF=Check GenChk RwB97XD/def2SVPP Freq
 ---------------------------------------------------------------------
 Structure from the checkpoint file:  "44.chk"
 --------------
 Comment gs min
 --------------
 Charge =  0 Multiplicity = 1

                         Standard orientation:
 ---------------------------------------------------------------------
 Center     Atomic      Atomic             Coordinates (Angstroms)
 Number     Number       Type             X           Y           Z
 ---------------------------------------------------------------------
      1          6           0        1.802571    0.643105    1.645550
      2          6           0        2.692556    0.590960    0.394446
      3          6           0        3.035119    2.023239   -0.045140
      4          6           0        3.959038   -0.189497    0.767626
      5         17           0        5.155220   -0.329862   -0.569187
      6          6           0        1.953604   -0.062437   -0.778383
      7         17           0        1.395644   -1.749462   -0.449562
      8          1           0        2.302744    1.204650    2.453882
      9          1           0        1.568431   -0.367114    2.020602
     10          1           0        0.850554    1.149658    1.412447
     11          1           0        2.113445    2.594146   -0.251832
     12          1           0        3.662936    2.030557   -0.951321
     13          1           0        3.587545    2.547237    0.754356
     14          1           0        3.707489   -1.217973    1.065211
     15          1           0        4.479209    0.306904    1.600727
     16          1           0        2.603834   -0.130191   -1.662065
     17          1           0        1.054581    0.519797   -1.027218
     18          6           0       -1.802513   -0.643144    1.645470
     19          6           0       -2.692543   -0.590969    0.394401
     20          6           0       -3.035124   -2.023239   -0.045202
     21          6           0       -3.959011    0.189483    0.767648
     22         17           0       -5.155249    0.329883   -0.569111
     23          6           0       -1.953635    0.062453   -0.778443
     24         17           0       -1.395646    1.749465   -0.449602
     25          1           0       -1.568347    0.367065    2.020529
     26          1           0       -0.850509   -1.149703    1.412322
     27          1           0       -2.302661   -1.204698    2.453811
     28          1           0       -3.587524   -2.547251    0.754302
     29          1           0       -2.113458   -2.594143   -0.251934
     30          1           0       -3.662970   -2.030538   -0.951363
     31          1           0       -3.707449    1.217951    1.065247
     32          1           0       -4.479150   -0.306935    1.600758
     33          1           0       -2.603906    0.130237   -1.662093
     34          1           0       -1.054627   -0.519779   -1.027341
 ---------------------------------------------------------------------

 SCF Done:  E(RwB97XD) =  -2232.92836066     a.u. after    1 cycles

 The electronic state is 1-A.
 Alpha  occ. eigenvalues -- -101.67352-101.67351-101.66331-101.66331 -10.35364
 Alpha  occ. eigenvalues --  -10.35362 -10.35274 -10.35274 -10.33634 -10.33633
 Alpha  occ. eigenvalues --  -10.29542 -10.29542 -10.29513 -10.29511  -9.58059
 Alpha  occ. eigenvalues --   -9.58059  -9.57097  -9.57097  -7.33410  -7.33410
 Alpha  occ. eigenvalues --   -7.32498  -7.32498  -7.32472  -7.32472  -7.32471
 Alpha  occ. eigenvalues --   -7.32471  -7.31521  -7.31521  -7.31489  -7.31489
 Alpha  occ. eigenvalues --   -0.98264  -0.98079  -0.94439  -0.94281  -0.89790
 Alpha  occ. eigenvalues --   -0.89700  -0.79499  -0.79294  -0.76772  -0.76678
 Alpha  occ. eigenvalues --   -0.76390  -0.76292  -0.64287  -0.63993  -0.58379
 Alpha  occ. eigenvalues --   -0.57859  -0.57725  -0.57314  -0.54564  -0.54206
 Alpha  occ. eigenvalues --   -0.52851  -0.52369  -0.50748  -0.50672  -0.49902
 Alpha  occ. eigenvalues --   -0.48684  -0.47254  -0.46896  -0.46727  -0.46553
 Alpha  occ. eigenvalues --   -0.45494  -0.45343  -0.43962  -0.43756  -0.42965
 Alpha  occ. eigenvalues --   -0.42462  -0.39577  -0.38681  -0.38654  -0.37881
 Alpha  occ. eigenvalues --   -0.37449  -0.37436  -0.37184  -0.36879
 Alpha virt. eigenvalues --    0.10450   0.10539   0.11486   0.11978   0.13181
 Alpha virt. eigenvalues --    0.14393   0.16388   0.17013   0.17391   0.17591
 Alpha virt. eigenvalues --    0.17802   0.18421   0.18687   0.19517   0.20476

 Mulliken charges:
               1
     1  C   -0.297551
     2  C   -0.264954
     3  C   -0.280429
     4  C   -0.123258
     5  Cl  -0.158927
     6  C   -0.139640
     7  Cl  -0.148205
     8  H    0.121409
     9  H    0.136301
    10  H    0.134008
    11  H    0.130832
    12  H    0.134639
    13  H    0.124231
    14  H    0.160313
    15  H    0.152033
    16  H    0.164842
    17  H    0.154357
    18  C   -0.297556
    19  C   -0.264950
    20  C   -0.280429
    21  C   -0.123259
    22  Cl  -0.158927
    23  C   -0.139640
    24  Cl  -0.148206
    25  H    0.136302
    26  H    0.134009
    27  H    0.121408
    28  H    0.124231
    29  H    0.130832
    30  H    0.134639
    31  H    0.160313
    32  H    0.152033
    33  H    0.164842
    34  H    0.154358
 Sum of Mulliken charges =  -0.00000

 Dipole moment (field-independent basis, Debye):
    X=              0.0000    Y=             -0.0000    Z=              2.1201  Tot=              2.1201
  Exact polarizability: 166.141   6.602 135.727  -0.000   0.000 126.828
 Approx polarizability: 160.526   4.531 160.194  -0.000   0.000 151.222
   1 Symmetry operations used in ECPInt.
 ECPInt:  NShTT=    8778 NPrTT=   37410 LenC2=    8094 LenP2D=   23728.
 LDataN:  DoStor=T MaxTD1= 6 Len=  172
 Calling FoFJK, ICntrl=    100127 FMM=F ISym2X=0 I1Cent= 0 IOpClX= 0 NMat=1 NMatS=1 NMatT=0.
 Full mass-weighted force constant matrix:
 Low frequencies ---   -4.8325   -0.7926   -0.0026   -0.0023    0.0013    6.1118
 Low frequencies ---   27.2508   28.3879   37.4903
 Diagonal vibrational polarizability:

                      1                      2                      3
                      A                      A                      A
 Frequencies --     27.2423                28.2573                37.4731
 Red. masses --      8.6660                 8.2012                 4.0387
 Frc consts  --      0.0038                 0.0039                 0.0033
 IR Inten    --      0.0052                 1.1450                 1.3698

                      4                      5                      6
                      A                      A                      A
 Frequencies --     40.9860                51.6862                59.2230
 Red. masses --      5.7826                 6.1461                 9.3844
 Frc consts  --      0.0057                 0.0097                 0.0194
 IR Inten    --      0.4070                 0.0231                 0.2900

                      7                      8                      9
                      A                      A                      A
 Frequencies --     80.3010                84.9970               168.3904
 Red. masses --     13.7623                 8.9731                 2.8429
 Frc consts  --      0.0523                 0.0382                 0.0475
 IR Inten    --      0.4248                 2.4390                 5.8916

                     10                     11                     12
                      A                      A                      A
 Frequencies --    173.7679               196.0819               205.4292
 Red. masses --      2.6977                 3.5531                 3.4732
 Frc consts  --      0.0480                 0.0805                 0.0864
 IR Inten    --      0.0249                 1.7762                 0.9213

                     13                     14                     15
                      A                      A                      A
 Frequencies --    234.2647               236.6930               244.1815
 Red. masses --      3.3981                 2.7775                 1.2402
 Frc consts  --      0.1099                 0.0917                 0.0436
 IR Inten    --     14.9870                 1.0879                 0.2882

                     16                     17                     18
                      A                      A                      A
 Frequencies --    248.1896               289.6448               296.7978
 Red. masses --      1.1524                 1.0371                 1.0411
 Frc consts  --      0.0418                 0.0513                 0.0540
 IR Inten    --      1.8059                 0.0481                 0.5349

                     19                     20                     21
                      A                      A                      A
 Frequencies --    325.3313               326.0893               344.6701
 Red. masses --      3.0329                 3.2698                 2.1283
 Frc consts  --      0.1891                 0.2049                 0.1490
 IR Inten    --      4.9941                 0.4762                 0.4535

                     22                     23                     24
                      A                      A                      A
 Frequencies --    350.4365               376.9881               377.0304
 Red. masses --      2.0381                 3.1699                 3.2081
 Frc consts  --      0.1475                 0.2654                 0.2687
 IR Inten    --      0.0016                 2.6530                 1.2561

                     25                     26                     27
                      A                      A                      A
 Frequencies --    475.6318               477.8676               478.9259
 Red. masses --      2.5253                 2.4953                 2.4997
 Frc consts  --      0.3366                 0.3357                 0.3378
 IR Inten    --      2.1883                 0.1584                 0.3867

                     28                     29                     30
                      A                      A                      A
 Frequencies --    479.9616               739.2271               740.4165
 Red. masses --      2.5195                 4.6487                 4.5246
 Frc consts  --      0.3420                 1.4967                 1.4614
 IR Inten    --      0.4461                 1.5731                11.5806

                     31                     32                     33
                      A                      A                      A
 Frequencies --    774.4811               776.4096               808.9472
 Red. masses --      5.2413                 5.2559                 4.1801
 Frc consts  --      1.8523                 1.8667                 1.6117
 IR Inten    --     11.9358                71.5094                 9.9174

                     34                     35                     36
                      A                      A                      A
 Frequencies --    809.2964               875.9072               876.0008
 Red. masses --      4.2012                 1.6068                 1.5994
 Frc consts  --      1.6212                 0.7263                 0.7231
 IR Inten    --     22.2045                16.5116                 0.0987

                     37                     38                     39
                      A                      A                      A
 Frequencies --    911.3302               912.6220               953.3890
 Red. masses --      1.9402                 1.9533                 1.6654
 Frc consts  --      0.9494                 0.9585                 0.8919
 IR Inten    --     17.0983                 2.6008                32.3352

                     40                     41                     42
                      A                      A                      A
 Frequencies --    953.6442               975.7759               977.2704
 Red. masses --      1.6768                 1.3714                 1.3764
 Frc consts  --      0.8985                 0.7693                 0.7745
 IR Inten    --      0.0728                 0.6907                 1.1165

                     43                     44                     45
                      A                      A                      A
 Frequencies --   1011.8805              1013.9838              1048.2082
 Red. masses --      1.5195                 1.5316                 1.3453
 Frc consts  --      0.9167                 0.9278                 0.8709
 IR Inten    --      1.0969                 4.4656                 0.0000

                     46                     47                     48
                      A                      A                      A
 Frequencies --   1048.5285              1149.4485              1151.3512
 Red. masses --      1.3349                 1.3698                 1.3827
 Frc consts  --      0.8647                 1.0663                 1.0799
 IR Inten    --      0.4738                 3.8186                 0.0115

                     49                     50                     51
                      A                      A                      A
 Frequencies --   1184.5224              1189.1914              1241.6017
 Red. masses --      1.2604                 1.3013                 1.7910
 Frc consts  --      1.0420                 1.0842                 1.6267
 IR Inten    --      3.8242                 1.4855                 5.2628

                     52                     53                     54
                      A                      A                      A
 Frequencies --   1247.0867              1285.4320              1286.9177
 Red. masses --      1.8690                 1.3627                 1.3706
 Frc consts  --      1.7126                 1.3266                 1.3374
 IR Inten    --      2.3719                 1.5709                 8.2933

                     55                     56                     57
                      A                      A                      A
 Frequencies --   1321.0772              1323.2052              1346.6520
 Red. masses --      2.0795                 2.0301                 1.5362
 Frc consts  --      2.1383                 2.0942                 1.6414
 IR Inten    --     29.1683                 0.9073                12.0155

                     58                     59                     60
                      A                      A                      A
 Frequencies --   1347.4377              1355.4594              1368.6149
 Red. masses --      1.5218                 1.5229                 1.4455
 Frc consts  --      1.6279                 1.6486                 1.5953
 IR Inten    --     20.5832                 6.6062                 0.1028

                     61                     62                     63
                      A                      A                      A
 Frequencies --   1410.5859              1412.5404              1428.7091
 Red. masses --      1.2778                 1.2770                 1.2194
 Frc consts  --      1.4980                 1.5012                 1.4666
 IR Inten    --      4.4664                 8.5384                22.3533

                     64                     65                     66
                      A                      A                      A
 Frequencies --   1431.2490              1463.7568              1468.8172
 Red. masses --      1.2156                 1.0922                 1.0811
 Frc consts  --      1.4671                 1.3787                 1.3742
 IR Inten    --      5.0999                 5.6975                 6.8237

                     67                     68                     69
                      A                      A                      A
 Frequencies --   1471.5377              1473.6018              1482.4925
 Red. masses --      1.0888                 1.0973                 1.0437
 Frc consts  --      1.3891                 1.4038                 1.3515
 IR Inten    --     15.3029                 0.1537                 6.7385

                     70                     71                     72
                      A                      A                      A
 Frequencies --   1485.3257              1488.0241              1493.9505
 Red. masses --      1.0495                 1.0600                 1.0521
 Frc consts  --      1.3642                 1.3829                 1.3834
 IR Inten    --      6.1064                 6.6441                14.2614

                     73                     74                     75
                      A                      A                      A
 Frequencies --   1502.1056              1503.6498              1510.9798
 Red. masses --      1.0678                 1.0703                 1.0682
 Frc consts  --      1.4195                 1.4258                 1.4368
 IR Inten    --      7.6450                 0.2801                30.8033

                     76                     77                     78
                      A                      A                      A
 Frequencies --   1518.6582              3036.4128              3036.9527
 Red. masses --      1.0655                 1.0372                 1.0373
 Frc consts  --      1.4479                 5.6344                 5.6368
 IR Inten    --     15.6038                13.3935                 7.4896

                     79                     80                     81
                      A                      A                      A
 Frequencies --   3039.0775              3040.1159              3096.9544
 Red. masses --      1.0378                 1.0377                 1.0602
 Frc consts  --      5.6472                 5.6505                 5.9912
 IR Inten    --     18.2270                17.8196                 0.0802

                     82                     83                     84
                      A                      A                      A
 Frequencies --   3096.9905              3110.1514              3111.0966
 Red. masses --      1.0602                 1.0600                 1.0598
 Frc consts  --      5.9912                 6.0413                 6.0436
 IR Inten    --     22.6106                 6.1234                 3.8406

                     85                     86                     87
                      A                      A                      A
 Frequencies --   3128.3677              3128.7818              3131.1945
 Red. masses --      1.1052                 1.1049                 1.1044
 Frc consts  --      6.3730                 6.3729                 6.3797
 IR Inten    --      3.3412                 5.8070                34.4109

                     88                     89                     90
                      A                      A                      A
 Frequencies --   3132.8357              3142.6299              3143.6121
 Red. masses --      1.1040                 1.1051                 1.1049
 Frc consts  --      6.3840                 6.4303                 6.4335
 IR Inten    --     10.3602                 1.4948                11.5038

                     91                     92                     93
                      A                      A                      A
 Frequencies --   3144.5822              3144.5981              3170.3132
 Red. masses --      1.1049                 1.1049                 1.1113
 Frc consts  --      6.4373                 6.4371                 6.5807
 IR Inten    --      7.7674                 8.1509                 0.9726

                     94                     95                     96
                      A                      A                      A
 Frequencies --   3170.3162              3186.0542              3186.4139
 Red. masses --      1.1113                 1.1120                 1.1117
 Frc consts  --      6.5808                 6.6507                 6.6502
 IR Inten    --      6.3627                 0.1939                 0.0627

                           ! Non-Optimized Parameters !
 Normal termination of Gaussian 16 at Tue Jun 27 03:04:34 2023.
