 Gaussian 16, Revision B.01,
 Gaussian 16:  ES64L-G16RevB.01 20-Dec-2017

 --------------------------------------------------------------
 #T wB97XD//def2svpp Volume=tight Geom=AllCheckpoint Guess=Read
 --------------------------------------------------------------
 Structure from the checkpoint file:  "20.chk"
 -----
 Dimer
 -----
 Charge =  0 Multiplicity = 1

                         Standard orientation:
 ---------------------------------------------------------------------
 Center     Atomic      Atomic             Coordinates (Angstroms)
 Number     Number       Type             X           Y           Z
 ---------------------------------------------------------------------
      1          8           0        2.955012    0.971201   -0.074116
      2          6           0        1.636719    1.457893   -0.005361
      3          6           0        0.565137    0.336586   -0.010491
      4          6           0        0.727283   -0.536163   -1.274018
      5          8           0        1.948112   -1.239822   -1.310294
      6          6           0        0.709668   -0.522847    1.264595
      7          8           0        2.001377   -1.073041    1.415923
      8          6           0       -0.783813    1.057517   -0.028600
      9         35           0       -2.356389   -0.096362    0.004813
     10          1           0        3.061252    0.367418    0.687551
     11          1           0        1.497005    2.108723   -0.886115
     12          1           0        1.498668    2.089574    0.896900
     13          1           0        0.613399    0.103667   -2.174252
     14          1           0       -0.072411   -1.293510   -1.307668
     15          1           0        2.655562   -0.569175   -1.266198
     16          1           0       -0.056715   -1.321073    1.263388
     17          1           0        0.530026    0.104346    2.155286
     18          1           0        2.156297   -1.626482    0.626953
     19          1           0       -0.888697    1.666873   -0.938884
     20          1           0       -0.886754    1.717667    0.845734
 ---------------------------------------------------------------------

 SCF Done:  E(RwB97XD) =  -2996.24451224     A.U. after    1 cycles

 The electronic state is 1-A.
 Alpha  occ. eigenvalues -- -483.06079 -62.64293 -56.45065 -56.44702 -56.44695
 Alpha  occ. eigenvalues --  -19.26658 -19.26562 -19.26368 -10.36596 -10.36013
 Alpha  occ. eigenvalues --  -10.35320 -10.35245 -10.33295  -8.81237  -6.63790
 Alpha  occ. eigenvalues --   -6.62470  -6.62444  -2.74151  -2.73783  -2.73761
 Alpha  occ. eigenvalues --   -2.72710  -2.72710  -1.15016  -1.11919  -1.11765
 Alpha  occ. eigenvalues --   -0.95136  -0.87993  -0.78486  -0.78003  -0.76100
 Alpha  occ. eigenvalues --   -0.68359  -0.63452  -0.63093  -0.58857  -0.56196
 Alpha  occ. eigenvalues --   -0.55338  -0.54662  -0.52600  -0.50624  -0.50210
 Alpha  occ. eigenvalues --   -0.49273  -0.47728  -0.44658  -0.44500  -0.43079
 Alpha  occ. eigenvalues --   -0.38788  -0.36913  -0.36732  -0.35632  -0.35310
 Alpha virt. eigenvalues --    0.06572   0.11862   0.13743   0.14843   0.17812
 Alpha virt. eigenvalues --    0.19228   0.19522   0.19892   0.20811   0.22367
 Alpha virt. eigenvalues --    0.22563   0.24158   0.25229   0.27901   0.29604

 Mulliken charges:
               1
     1  O   -0.510203
     2  C    0.076329
     3  C   -0.374078
     4  C    0.079410
     5  O   -0.513837
     6  C    0.079073
     7  O   -0.517016
     8  C   -0.203746
     9  Br  -0.107180
    10  H    0.332796
    11  H    0.110349
    12  H    0.102963
    13  H    0.099319
    14  H    0.126449
    15  H    0.330092
    16  H    0.122575
    17  H    0.108402
    18  H    0.332827
    19  H    0.162595
    20  H    0.162882
 Sum of Mulliken charges =  -0.00000

 Dipole moment (field-independent basis, Debye):
    X=             -0.6865    Y=              1.7622    Z=             -0.0151  Tot=              1.8912
 Evaluate density.
 Using the total density.
 Monte-Carlo method of calculating molar volume:
 based on  0.001 e/bohr**3 density envelope.
 Number of points per bohr**3 =  100 CutOff= 1.00D-04
 Using the SCF density.
 There are      2114 points.  Will hold      2114 in memory.
 LenV=  1048163752 MDV=  1048576000.
 Box volume = 9458.442 fraction occupied=0.143
 Integrated density= 9.6059678514232289D+01 error=-3.9403214857677114D+00

 Normal termination of Gaussian 16 at Fri Feb  3 13:09:53 2023.
