 Gaussian 16, Revision B.01,
 Gaussian 16:  ES64L-G16RevB.01 20-Dec-2017

 ----------------------------------------------------------------------
 #T wB97XD/def2svpp opt=tight freq int(grid=ultrafine) scf=(verytight,q
 c) Volume=tight
 ----------------------------------------------------------------------
 -------
 Monomer
 -------
 Symbolic Z-matrix:
 Charge =  0 Multiplicity = 1

 SCF Done:  E(RwB97XD) =  -287.522666800     a.u. after    7 cycles
 SCF Done:  E(RwB97XD) =  -287.524173680     a.u. after    5 cycles
 SCF Done:  E(RwB97XD) =  -287.524096595     a.u. after    7 cycles
 SCF Done:  E(RwB97XD) =  -287.524241505     a.u. after    5 cycles
 SCF Done:  E(RwB97XD) =  -287.524245612     a.u. after    3 cycles
 SCF Done:  E(RwB97XD) =  -287.524246752     a.u. after    3 cycles
 SCF Done:  E(RwB97XD) =  -287.524247594     a.u. after    3 cycles
 SCF Done:  E(RwB97XD) =  -287.524248921     a.u. after    4 cycles
 SCF Done:  E(RwB97XD) =  -287.524251621     a.u. after    6 cycles
 SCF Done:  E(RwB97XD) =  -287.524252938     a.u. after    5 cycles
 SCF Done:  E(RwB97XD) =  -287.524253182     a.u. after    2 cycles
 SCF Done:  E(RwB97XD) =  -287.524253189     a.u. after    2 cycles
 SCF Done:  E(RwB97XD) =  -287.524253187     a.u. after    2 cycles
 SCF Done:  E(RwB97XD) =  -287.524253186     a.u. after    2 cycles
 SCF Done:  E(RwB97XD) =  -287.524253194     a.u. after    2 cycles
 SCF Done:  E(RwB97XD) =  -287.524253186     a.u. after    2 cycles
 SCF Done:  E(RwB97XD) =  -287.524253187     a.u. after    2 cycles
 SCF Done:  E(RwB97XD) =  -287.524253186     a.u. after    2 cycles
 SCF Done:  E(RwB97XD) =  -287.524253187     a.u. after    2 cycles
 Optimization completed.
    -- Stationary point found.
 Normal termination of Gaussian 16 at Fri Mar 29 15:39:46 2024.

 ---------------------------------------------------------------------
 #T Geom=AllCheck Guess=TCheck SCRF=Check GenChk RwB97XD/def2SVPP Freq
 ---------------------------------------------------------------------
 Structure from the checkpoint file:  "monomer.chk"
 -------
 Monomer
 -------
 Charge =  0 Multiplicity = 1

                         Standard orientation:
 ---------------------------------------------------------------------
 Center     Atomic      Atomic             Coordinates (Angstroms)
 Number     Number       Type             X           Y           Z
 ---------------------------------------------------------------------
      1          6           0       -1.513653   -1.012234   -0.490450
      2          6           0       -0.619185    0.222556   -0.402922
      3          6           0       -1.178691    1.259625    0.580978
      4          6           0        0.786128   -0.174881    0.054384
      5          7           0        1.807166    0.494351   -0.554954
      6          8           0        0.979763   -0.998432    0.923665
      7          1           0       -2.541035   -0.727713   -0.776118
      8          1           0       -1.543733   -1.524579    0.485022
      9          1           0       -1.133947   -1.731150   -1.236205
     10          1           0       -0.553577    0.690346   -1.402652
     11          1           0       -2.191524    1.575916    0.277161
     12          1           0       -0.538506    2.157576    0.629724
     13          1           0       -1.239356    0.827338    1.594477
     14          1           0        1.650623    1.182079   -1.278765
     15          1           0        2.755193    0.306790   -0.249231
 ---------------------------------------------------------------------

 SCF Done:  E(RwB97XD) =  -287.524253187     a.u. after    1 cycles

 The electronic state is 1-A.
 Alpha  occ. eigenvalues --  -19.21231 -14.45967 -10.39316 -10.30801 -10.28972
 Alpha  occ. eigenvalues --  -10.28060  -1.12178  -0.99227  -0.89158  -0.77559
 Alpha  occ. eigenvalues --   -0.72776  -0.65695  -0.61614  -0.58224  -0.52984
 Alpha  occ. eigenvalues --   -0.51975  -0.49971  -0.47304  -0.45888  -0.44416
 Alpha  occ. eigenvalues --   -0.42542  -0.41940  -0.35087  -0.32944
 Alpha virt. eigenvalues --    0.10945   0.12266   0.15683   0.17800   0.19521
 Alpha virt. eigenvalues --    0.20356   0.21345   0.22971   0.24503   0.25429
 Alpha virt. eigenvalues --    0.27805   0.29891   0.33720   0.37854   0.46209

 Mulliken charges:
               1
     1  C   -0.293995
     2  C   -0.250502
     3  C   -0.296120
     4  C    0.173119
     5  N   -0.419066
     6  O   -0.267589
     7  H    0.115328
     8  H    0.140344
     9  H    0.121953
    10  H    0.086717
    11  H    0.126393
    12  H    0.116177
    13  H    0.136013
    14  H    0.253217
    15  H    0.258011
 Sum of Mulliken charges =  -0.00000

 Dipole moment (field-independent basis, Debye):
    X=              0.2865    Y=              2.6496    Z=             -2.5044  Tot=              3.6571
  Exact polarizability:  54.880   1.749  49.294  -1.093  -3.957  45.938
 Approx polarizability:  52.542   1.204  52.940  -0.737  -8.897  52.878
   1 Symmetry operations used in ECPInt.
 ECPInt:  NShTT=    1485 NPrTT=    5991 LenC2=    1482 LenP2D=    4944.
 LDataN:  DoStor=T MaxTD1= 6 Len=  172
 Calling FoFJK, ICntrl=    100127 FMM=F ISym2X=0 I1Cent= 0 IOpClX= 0 NMat=1 NMatS=1 NMatT=0.
 Full mass-weighted force constant matrix:
 Low frequencies ---   -6.4841   -0.0008    0.0006    0.0009    2.7027   11.9312
 Low frequencies ---   20.4861  218.5947  238.5919
 Diagonal vibrational polarizability:

                      1                      2                      3
                      A                      A                      A
 Frequencies --     20.4575               218.5940               238.5917
 Red. masses --      3.6745                 1.1525                 2.2453
 Frc consts  --      0.0009                 0.0324                 0.0753
 IR Inten    --      8.4464                 1.2496                 8.7442

                      4                      5                      6
                      A                      A                      A
 Frequencies --    247.3166               274.7054               302.7058
 Red. masses --      1.2672                 1.2109                 2.1624
 Frc consts  --      0.0457                 0.0538                 0.1167
 IR Inten    --      5.3033               194.3998                 7.5402

                      7                      8                      9
                      A                      A                      A
 Frequencies --    340.0276               486.5209               593.4930
 Red. masses --      2.4115                 2.5520                 1.1190
 Frc consts  --      0.1643                 0.3559                 0.2322
 IR Inten    --      1.0556                 2.9968                16.3959

                     10                     11                     12
                      A                      A                      A
 Frequencies --    627.6258               770.3696               792.3008
 Red. masses --      3.1328                 2.5814                 4.0178
 Frc consts  --      0.7271                 0.9026                 1.4860
 IR Inten    --      6.4522                 4.9735                 8.8283

                     13                     14                     15
                      A                      A                      A
 Frequencies --    937.8822               947.0877               988.5438
 Red. masses --      2.0345                 1.1762                 1.4357
 Frc consts  --      1.0544                 0.6216                 0.8266
 IR Inten    --      3.1013                 2.6340                 0.7402

                     16                     17                     18
                      A                      A                      A
 Frequencies --   1076.0777              1144.5462              1153.7267
 Red. masses --      1.5124                 1.9128                 2.0982
 Frc consts  --      1.0318                 1.4763                 1.6455
 IR Inten    --      6.5091                 4.8793                 0.4412

                     19                     20                     21
                      A                      A                      A
 Frequencies --   1208.7416              1300.7966              1353.3592
 Red. masses --      1.8842                 1.7517                 1.3849
 Frc consts  --      1.6220                 1.7463                 1.4945
 IR Inten    --      3.9700                72.9661                 9.1643

                     22                     23                     24
                      A                      A                      A
 Frequencies --   1404.7937              1421.4754              1442.4639
 Red. masses --      1.3321                 1.2499                 2.0602
 Frc consts  --      1.5489                 1.4880                 2.5256
 IR Inten    --     12.1327                10.7845                48.3071

                     25                     26                     27
                      A                      A                      A
 Frequencies --   1479.5864              1484.4562              1495.6387
 Red. masses --      1.0408                 1.0460                 1.0501
 Frc consts  --      1.3425                 1.3580                 1.3840
 IR Inten    --      1.8078                 2.3850                13.0641

                     28                     29                     30
                      A                      A                      A
 Frequencies --   1510.6268              1632.8216              1863.3676
 Red. masses --      1.1112                 1.3070                 9.8975
 Frc consts  --      1.4941                 2.0531                20.2476
 IR Inten    --     26.8634               139.7454               295.6056

                     31                     32                     33
                      A                      A                      A
 Frequencies --   3032.9535              3039.6168              3045.2725
 Red. masses --      1.0367                 1.0448                 1.0777
 Frc consts  --      5.6189                 5.6877                 5.8883
 IR Inten    --     23.6540                24.9532                25.0656

                     34                     35                     36
                      A                      A                      A
 Frequencies --   3126.8864              3130.3392              3135.8374
 Red. masses --      1.1054                 1.1053                 1.1056
 Frc consts  --      6.3679                 6.3815                 6.4058
 IR Inten    --     17.8921                22.4199                12.7657

                     37                     38                     39
                      A                      A                      A
 Frequencies --   3149.8390              3595.4439              3719.8839
 Red. masses --      1.1046                 1.0457                 1.1052
 Frc consts  --      6.4570                 7.9643                 9.0101
 IR Inten    --     10.9423                47.4157                44.1738

 Optimization completed.
    -- Stationary point found.
 Normal termination of Gaussian 16 at Fri Mar 29 15:40:36 2024.
