 Gaussian 16, Revision B.01,
 Gaussian 16:  ES64L-G16RevB.01 20-Dec-2017

 --------------------------------------------------------------
 #T wB97XD//def2svpp Volume=tight Geom=AllCheckpoint Guess=Read
 --------------------------------------------------------------
 Structure from the checkpoint file:  "39.chk"
 -------
 Monomer
 -------
 Charge =  0 Multiplicity = 1

                         Standard orientation:
 ---------------------------------------------------------------------
 Center     Atomic      Atomic             Coordinates (Angstroms)
 Number     Number       Type             X           Y           Z
 ---------------------------------------------------------------------
      1          6           0        0.447450    1.481337   -0.386026
      2          6           0        0.411903    0.005036    0.012875
      3          6           0        1.637241   -0.722885   -0.559196
      4          7           0        0.350187   -0.062332    1.476724
      5          6           0       -0.876211   -0.671930   -0.518497
      6          7           0       -2.129656   -0.118577   -0.052870
      7          1           0        0.426446    1.594743   -1.483985
      8          1           0        1.367881    1.968701   -0.015362
      9          1           0       -0.413823    2.019396    0.043294
     10          1           0        1.672346   -0.662277   -1.661940
     11          1           0        1.620846   -1.792906   -0.281242
     12          1           0        2.571899   -0.284194   -0.164820
     13          1           0        0.451656   -1.028592    1.792331
     14          1           0        1.111994    0.470524    1.897840
     15          1           0       -0.836275   -1.740085   -0.225121
     16          1           0       -0.865113   -0.658977   -1.623198
     17          1           0       -2.317652    0.781480   -0.492280
     18          1           0       -2.056209    0.049198    0.952557
 ---------------------------------------------------------------------

 SCF Done:  E(RwB97XD) =  -268.844267487     A.U. after    1 cycles

 The electronic state is 1-A.
 Alpha  occ. eigenvalues --  -14.41656 -14.39949 -10.32578 -10.30414 -10.28255
 Alpha  occ. eigenvalues --  -10.28238  -0.99525  -0.94639  -0.84557  -0.77938
 Alpha  occ. eigenvalues --   -0.74228  -0.64222  -0.58647  -0.57063  -0.53723
 Alpha  occ. eigenvalues --   -0.52978  -0.51210  -0.47478  -0.46360  -0.45233
 Alpha  occ. eigenvalues --   -0.43788  -0.42814  -0.41390  -0.32201  -0.30216
 Alpha virt. eigenvalues --    0.11948   0.16199   0.17558   0.17670   0.18492
 Alpha virt. eigenvalues --    0.20499   0.21100   0.23064   0.23744   0.25245
 Alpha virt. eigenvalues --    0.26087   0.28018   0.29289   0.31299   0.33080

 Mulliken charges:
               1
     1  C   -0.281303
     2  C   -0.149697
     3  C   -0.259379
     4  N   -0.494266
     5  C   -0.038754
     6  N   -0.501287
     7  H    0.113866
     8  H    0.110315
     9  H    0.112197
    10  H    0.111148
    11  H    0.107479
    12  H    0.106895
    13  H    0.216193
    14  H    0.217305
    15  H    0.088940
    16  H    0.096192
    17  H    0.216850
    18  H    0.227308
 Sum of Mulliken charges =  -0.00000

 Dipole moment (field-independent basis, Debye):
    X=              2.1711    Y=              0.5566    Z=              0.2027  Tot=              2.2505
 Evaluate density.
 Using the total density.
 Monte-Carlo method of calculating molar volume:
 based on  0.001 e/bohr**3 density envelope.
 Number of points per bohr**3 =  100 CutOff= 1.00D-04
 Using the SCF density.
 There are      1733 points.  Will hold      1733 in memory.
 LenV=  1048359065 MDV=  1048576000.
 Box volume = 5206.003 fraction occupied=0.170
 Integrated density= 3.7945759084622466D+01 error=-1.2054240915377534D+01

 Normal termination of Gaussian 16 at Thu Feb  2 13:00:59 2023.
