 Gaussian 16, Revision B.01,
 Gaussian 16:  ES64L-G16RevB.01 20-Dec-2017

 ----------------------------------------------------------------------
 #T wB97XD/def2svpp opt=tight freq int(grid=ultrafine) scf=(verytight,q
 c) Volume=tight
 ----------------------------------------------------------------------
 -----
 Dimer
 -----
 Symbolic Z-matrix:
 Charge =  0 Multiplicity = 1

 SCF Done:  E(RwB97XD) =  -238.006637455     a.u. after    8 cycles
 SCF Done:  E(RwB97XD) =  -238.009515252     a.u. after    5 cycles
 SCF Done:  E(RwB97XD) =  -238.009612238     a.u. after    3 cycles
 SCF Done:  E(RwB97XD) =  -238.009686694     a.u. after    3 cycles
 SCF Done:  E(RwB97XD) =  -238.009693382     a.u. after    3 cycles
 SCF Done:  E(RwB97XD) =  -238.009702667     a.u. after    2 cycles
 SCF Done:  E(RwB97XD) =  -238.009771705     a.u. after    3 cycles
 SCF Done:  E(RwB97XD) =  -238.009960230     a.u. after    5 cycles
 SCF Done:  E(RwB97XD) =  -238.009998422     a.u. after    2 cycles
 SCF Done:  E(RwB97XD) =  -238.010052611     a.u. after    3 cycles
 SCF Done:  E(RwB97XD) =  -238.010107300     a.u. after    2 cycles
 SCF Done:  E(RwB97XD) =  -238.010107301     a.u. after    2 cycles
 SCF Done:  E(RwB97XD) =  -238.010107301     a.u. after    2 cycles
 SCF Done:  E(RwB97XD) =  -238.010107302     a.u. after    2 cycles
 SCF Done:  E(RwB97XD) =  -238.010107301     a.u. after    2 cycles
 SCF Done:  E(RwB97XD) =  -238.010107302     a.u. after    2 cycles
 SCF Done:  E(RwB97XD) =  -238.010107302     a.u. after    2 cycles
 SCF Done:  E(RwB97XD) =  -238.010107301     a.u. after    2 cycles
 SCF Done:  E(RwB97XD) =  -238.010107301     a.u. after    2 cycles
 Optimization completed.
    -- Stationary point found.
 Normal termination of Gaussian 16 at Sun Feb  5 15:38:31 2023.

 ---------------------------------------------------------------------
 #T Geom=AllCheck Guess=TCheck SCRF=Check GenChk RwB97XD/def2SVPP Freq
 ---------------------------------------------------------------------
 Structure from the checkpoint file:  "4.chk"
 -----
 Dimer
 -----
 Charge =  0 Multiplicity = 1

                         Standard orientation:
 ---------------------------------------------------------------------
 Center     Atomic      Atomic             Coordinates (Angstroms)
 Number     Number       Type             X           Y           Z
 ---------------------------------------------------------------------
      1          6           0       -1.868464   -1.239233   -0.414159
      2          6           0       -1.895098    0.284719   -0.504892
      3          6           0       -1.900931    0.964659    0.861977
      4          1           0       -1.851069   -1.703449   -1.415376
      5          1           0       -2.757636   -1.621815    0.118825
      6          1           0       -0.975923   -1.589979    0.134490
      7          1           0       -2.785105    0.603622   -1.077522
      8          1           0       -1.020627    0.634128   -1.083377
      9          1           0       -2.792184    0.675378    1.447657
     10          1           0       -1.902648    2.064273    0.766933
     11          1           0       -1.010497    0.680185    1.451070
     12          6           0        1.901014   -0.964654    0.861960
     13          6           0        1.895125   -0.284720   -0.504912
     14          6           0        1.868355    1.239229   -0.414182
     15          1           0        1.902817   -2.064269    0.766921
     16          1           0        1.010560   -0.680246    1.451056
     17          1           0        2.792246   -0.675301    1.447637
     18          1           0        1.020692   -0.634217   -1.083403
     19          1           0        2.785165   -0.603544   -1.077535
     20          1           0        2.757503    1.621889    0.118786
     21          1           0        0.975794    1.589896    0.134484
     22          1           0        1.850904    1.703444   -1.415399
 ---------------------------------------------------------------------

 SCF Done:  E(RwB97XD) =  -238.010107301     a.u. after    1 cycles

 The electronic state is 1-A.
 Alpha  occ. eigenvalues --  -10.28726 -10.28723 -10.27958 -10.27957 -10.27877
 Alpha  occ. eigenvalues --  -10.27877  -0.87403  -0.86894  -0.76882  -0.76660
 Alpha  occ. eigenvalues --   -0.67000  -0.66785  -0.55689  -0.53105  -0.52389
 Alpha  occ. eigenvalues --   -0.52200  -0.48397  -0.48152  -0.46764  -0.45974
 Alpha  occ. eigenvalues --   -0.41980  -0.41973  -0.41946  -0.41478  -0.40942
 Alpha  occ. eigenvalues --   -0.40184
 Alpha virt. eigenvalues --    0.12260   0.15916   0.16578   0.16721   0.18585
 Alpha virt. eigenvalues --    0.19961   0.20823   0.21364   0.22035   0.22610
 Alpha virt. eigenvalues --    0.24239   0.24430   0.25102   0.25143   0.27411

 Mulliken charges:
               1
     1  C   -0.345344
     2  C   -0.249821
     3  C   -0.351611
     4  H    0.120612
     5  H    0.115120
     6  H    0.123561
     7  H    0.107329
     8  H    0.114683
     9  H    0.116149
    10  H    0.122114
    11  H    0.127208
    12  C   -0.351609
    13  C   -0.249820
    14  C   -0.345348
    15  H    0.122113
    16  H    0.127207
    17  H    0.116147
    18  H    0.114682
    19  H    0.107329
    20  H    0.115120
    21  H    0.123565
    22  H    0.120613
 Sum of Mulliken charges =  -0.00000

 Dipole moment (field-independent basis, Debye):
    X=              0.0000    Y=              0.0000    Z=             -0.0835  Tot=              0.0835
  Exact polarizability:  71.542   0.036  68.314   0.000   0.000  64.242
 Approx polarizability:  68.311  -0.007  66.430  -0.000   0.000  66.614
   1 Symmetry operations used in ECPInt.
 ECPInt:  NShTT=    2346 NPrTT=    9442 LenC2=    2338 LenP2D=    7567.
 LDataN:  DoStor=T MaxTD1= 6 Len=  172
 Calling FoFJK, ICntrl=    100127 FMM=F ISym2X=0 I1Cent= 0 IOpClX= 0 NMat=1 NMatS=1 NMatT=0.
 Full mass-weighted force constant matrix:
 Low frequencies ---   -6.9505   -6.2015   -0.0003   -0.0001    0.0004    9.5139
 Low frequencies ---   44.7667   48.5735   55.0366
 Diagonal vibrational polarizability:

                      1                      2                      3
                      A                      A                      A
 Frequencies --     44.6897                48.5669                55.0359
 Red. masses --      2.4832                 2.7431                 2.4457
 Frc consts  --      0.0029                 0.0038                 0.0044
 IR Inten    --      0.0004                 0.0007                 0.0315

                      4                      5                      6
                      A                      A                      A
 Frequencies --     74.4689                91.5654                99.7561
 Red. masses --      3.1423                 1.5735                 1.5304
 Frc consts  --      0.0103                 0.0078                 0.0090
 IR Inten    --      0.0000                 0.0127                 0.0402

                      7                      8                      9
                      A                      A                      A
 Frequencies --    235.4057               237.9414               287.4206
 Red. masses --      1.0459                 1.0407                 1.1567
 Frc consts  --      0.0341                 0.0347                 0.0563
 IR Inten    --      0.0249                 0.0093                 0.0002

                     10                     11                     12
                      A                      A                      A
 Frequencies --    287.4966               376.4187               376.5148
 Red. masses --      1.1346                 2.0537                 2.0497
 Frc consts  --      0.0553                 0.1714                 0.1712
 IR Inten    --      0.0000                 0.1603                 0.1360

                     13                     14                     15
                      A                      A                      A
 Frequencies --    758.3924               762.3570               897.5008
 Red. masses --      1.0784                 1.0780                 2.4161
 Frc consts  --      0.3654                 0.3691                 1.1466
 IR Inten    --     17.0677                 0.0076                 0.5737

                     16                     17                     18
                      A                      A                      A
 Frequencies --    897.9457               920.0297               922.2559
 Red. masses --      2.4241                 1.1031                 1.1018
 Frc consts  --      1.1516                 0.5501                 0.5521
 IR Inten    --      1.5924                 0.0687                 0.1082

                     19                     20                     21
                      A                      A                      A
 Frequencies --    944.4080               944.7534              1090.9618
 Red. masses --      1.1873                 1.1879                 2.1817
 Frc consts  --      0.6239                 0.6247                 1.5299
 IR Inten    --      0.9164                 3.1728                 0.0551

                     22                     23                     24
                      A                      A                      A
 Frequencies --   1091.1325              1187.8861              1188.4754
 Red. masses --      2.1774                 1.7950                 1.7897
 Frc consts  --      1.5274                 1.4923                 1.4894
 IR Inten    --      0.2944                 2.2681                 0.9943

                     25                     26                     27
                      A                      A                      A
 Frequencies --   1219.2540              1219.8002              1323.1761
 Red. masses --      1.6635                 1.6642                 1.1258
 Frc consts  --      1.4570                 1.4589                 1.1613
 IR Inten    --      1.6826                 0.1257                 0.0533

                     28                     29                     30
                      A                      A                      A
 Frequencies --   1324.0537              1375.3514              1376.5433
 Red. masses --      1.1244                 1.3316                 1.3155
 Frc consts  --      1.1614                 1.4841                 1.4687
 IR Inten    --      0.0198                 0.6030                 0.1582

                     31                     32                     33
                      A                      A                      A
 Frequencies --   1424.3847              1425.9018              1426.6309
 Red. masses --      1.3092                 1.3598                 1.4478
 Frc consts  --      1.5650                 1.6289                 1.7361
 IR Inten    --      1.7922                14.7251                 2.8021

                     34                     35                     36
                      A                      A                      A
 Frequencies --   1429.3630              1482.2770              1482.9220
 Red. masses --      1.2499                 1.0480                 1.0352
 Frc consts  --      1.5046                 1.3567                 1.3412
 IR Inten    --      7.7948                 1.7923                 0.2567

                     37                     38                     39
                      A                      A                      A
 Frequencies --   1483.3094              1491.2595              1494.3864
 Red. masses --      1.0363                 1.0576                 1.0605
 Frc consts  --      1.3433                 1.3858                 1.3953
 IR Inten    --      0.1684                 0.2823                 7.9639

                     40                     41                     42
                      A                      A                      A
 Frequencies --   1495.3399              1501.0251              1501.1843
 Red. masses --      1.0431                 1.0503                 1.0492
 Frc consts  --      1.3743                 1.3943                 1.3931
 IR Inten    --      0.9306                 0.9358                25.5129

                     43                     44                     45
                      A                      A                      A
 Frequencies --   1505.5151              1509.0669              3025.6088
 Red. masses --      1.0794                 1.0758                 1.0377
 Frc consts  --      1.4414                 1.4434                 5.5968
 IR Inten    --     11.3205                 6.4433                36.2266

                     46                     47                     48
                      A                      A                      A
 Frequencies --   3026.5669              3027.9553              3028.5868
 Red. masses --      1.0377                 1.0380                 1.0380
 Frc consts  --      5.6004                 5.6074                 5.6097
 IR Inten    --     17.7523                22.2528                19.2937

                     49                     50                     51
                      A                      A                      A
 Frequencies --   3042.3003              3043.0692              3084.6397
 Red. masses --      1.0639                 1.0640                 1.1037
 Frc consts  --      5.8017                 5.8053                 6.1874
 IR Inten    --     36.5515                10.9582                 0.0624

                     52                     53                     54
                      A                      A                      A
 Frequencies --   3085.2870              3113.6906              3113.8317
 Red. masses --      1.1040                 1.1049                 1.1048
 Frc consts  --      6.1916                 6.3115                 6.3115
 IR Inten    --      7.4296                 4.7663                 0.0870

                     55                     56                     57
                      A                      A                      A
 Frequencies --   3121.1188              3122.3235              3123.0470
 Red. masses --      1.1049                 1.1044                 1.1049
 Frc consts  --      6.3414                 6.3434                 6.3493
 IR Inten    --    156.5260                22.2643                 0.0930

                     58                     59                     60
                      A                      A                      A
 Frequencies --   3123.2391              3124.3354              3125.8497
 Red. masses --      1.1047                 1.1040                 1.1039
 Frc consts  --      6.3493                 6.3495                 6.3553
 IR Inten    --     44.5540                19.1765                33.2771

                           ! Non-Optimized Parameters !
 Normal termination of Gaussian 16 at Sun Feb  5 15:40:21 2023.
