 Gaussian 16, Revision B.01,
 Gaussian 16:  ES64L-G16RevB.01 20-Dec-2017

 ----------------------------------------------------------------------
 #T wB97XD/def2svpp opt=tight freq int(grid=ultrafine) scf=(verytight,q
 c)
 ----------------------------------------------------------------------
 -------
 comment
 -------
 Symbolic Z-matrix:
 Charge =  1 Multiplicity = 2

 SCF Done:  E(UwB97XD) =  -512.431839273     a.u. after   30 cycles
 SCF Done:  E(UwB97XD) =  -512.440815047     a.u. after   14 cycles
 SCF Done:  E(UwB97XD) =  -512.442693370     a.u. after   15 cycles
 SCF Done:  E(UwB97XD) =  -512.434446263     a.u. after   22 cycles
 SCF Done:  E(UwB97XD) =  -512.441611984     a.u. after   13 cycles
 SCF Done:  E(UwB97XD) =  -512.446039266     a.u. after    3 cycles
 SCF Done:  E(UwB97XD) =  -512.447046251     a.u. after   13 cycles
 SCF Done:  E(UwB97XD) =  -512.446609748     a.u. after   11 cycles
 SCF Done:  E(UwB97XD) =  -512.447959064     a.u. after    7 cycles
 SCF Done:  E(UwB97XD) =  -512.448157975     a.u. after    8 cycles
 SCF Done:  E(UwB97XD) =  -512.451393310     a.u. after    5 cycles
 SCF Done:  E(UwB97XD) =  -512.451393811     a.u. after    3 cycles
 SCF Done:  E(UwB97XD) =  -512.451393850     a.u. after    2 cycles
 SCF Done:  E(UwB97XD) =  -512.451393873     a.u. after    2 cycles
 SCF Done:  E(UwB97XD) =  -512.451393883     a.u. after    2 cycles
 SCF Done:  E(UwB97XD) =  -512.451393880     a.u. after    2 cycles
 SCF Done:  E(UwB97XD) =  -512.451393878     a.u. after    2 cycles
 SCF Done:  E(UwB97XD) =  -512.451393893     a.u. after    3 cycles
 SCF Done:  E(UwB97XD) =  -512.451393876     a.u. after    3 cycles
 Optimization completed.
    -- Stationary point found.
 Normal termination of Gaussian 16 at Mon Jul 10 20:28:48 2023.

 ---------------------------------------------------------------------
 #T Geom=AllCheck Guess=TCheck SCRF=Check GenChk UwB97XD/def2SVPP Freq
 ---------------------------------------------------------------------
 Structure from the checkpoint file:  "38.chk"
 -------
 comment
 -------
 Charge =  1 Multiplicity = 2

                         Standard orientation:
 ---------------------------------------------------------------------
 Center     Atomic      Atomic             Coordinates (Angstroms)
 Number     Number       Type             X           Y           Z
 ---------------------------------------------------------------------
      1          6           0        0.007458    0.006762    1.757377
      2          6           0       -0.095433    0.088375    0.256202
      3          6           0        0.550917    1.306185   -0.424218
      4          8           0        1.946021    1.128398   -0.384703
      5          6           0        0.670226   -1.312897   -0.448653
      6          8           0        1.903340   -1.321087    0.027739
      7          7           0       -1.540086   -0.031365   -0.191749
      8          8           0       -2.126431    1.016577   -0.077878
      9          8           0       -1.973549   -1.083942   -0.562824
     10          1           0        1.050871    0.148027    2.076299
     11          1           0       -0.369073   -0.955574    2.140900
     12          1           0       -0.609257    0.816439    2.188299
     13          1           0        0.243514    2.202337    0.143880
     14          1           0        0.181683    1.400140   -1.461732
     15          1           0        2.422970    1.926542   -0.660965
     16          1           0        0.574211   -1.068879   -1.525017
     17          1           0        0.084752   -2.172401   -0.098575
     18          1           0        2.406887   -0.527195   -0.323766
 ---------------------------------------------------------------------

 SCF Done:  E(UwB97XD) =  -512.451393876     a.u. after    1 cycles

 The electronic state is 2-A.
 Alpha  occ. eigenvalues --  -19.56059 -19.49128 -19.48760 -19.48585 -14.88061
 Alpha  occ. eigenvalues --  -10.61418 -10.60409 -10.56602 -10.49044  -1.54039
 Alpha  occ. eigenvalues --   -1.42920  -1.36753  -1.34461  -1.15836  -1.01383
 Alpha  occ. eigenvalues --   -1.00137  -0.98959  -0.90054  -0.85421  -0.84306
 Alpha  occ. eigenvalues --   -0.83555  -0.80750  -0.80056  -0.79045  -0.77683
 Alpha  occ. eigenvalues --   -0.74461  -0.72301  -0.70119  -0.68163  -0.67289
 Alpha  occ. eigenvalues --   -0.64553  -0.61094  -0.59174  -0.58586  -0.58027
 Alpha  occ. eigenvalues --   -0.57837
 Alpha virt. eigenvalues --   -0.17771  -0.08338  -0.04541  -0.01592  -0.00435
 Alpha virt. eigenvalues --   -0.00215   0.00638   0.02915   0.04284   0.05581
 Alpha virt. eigenvalues --    0.06546   0.07079   0.08855   0.10414   0.11597

  Beta  occ. eigenvalues --  -19.54977 -19.48825 -19.48724 -19.48632 -14.88055
  Beta  occ. eigenvalues --  -10.60981 -10.60268 -10.56600 -10.49047  -1.53836
  Beta  occ. eigenvalues --   -1.40540  -1.36452  -1.34276  -1.14628  -1.00268
  Beta  occ. eigenvalues --   -0.99646  -0.98579  -0.88746  -0.85111  -0.83926
  Beta  occ. eigenvalues --   -0.82316  -0.80303  -0.79114  -0.78377  -0.76441
  Beta  occ. eigenvalues --   -0.72696  -0.70463  -0.69502  -0.67055  -0.66009
  Beta  occ. eigenvalues --   -0.63208  -0.59078  -0.58746  -0.57948  -0.56844
  Beta virt. eigenvalues --   -0.34967  -0.17647  -0.07552  -0.03239  -0.00916
  Beta virt. eigenvalues --   -0.00161   0.00109   0.00992   0.03113   0.04753
  Beta virt. eigenvalues --    0.05955   0.06960   0.07494   0.09478   0.10810

 Mulliken charges and spin densities:
               1          2
     1  C   -0.233741   0.003961
     2  C   -0.349702   0.280612
     3  C    0.092676   0.000941
     4  O   -0.524494   0.012528
     5  C    0.032660   0.087528
     6  O   -0.215253   0.431045
     7  N    0.280178  -0.004044
     8  O   -0.150725   0.117231
     9  O   -0.165785  -0.016933
    10  H    0.195168  -0.001014
    11  H    0.195296   0.005050
    12  H    0.212860   0.022033
    13  H    0.199668   0.021322
    14  H    0.173301  -0.000637
    15  H    0.392265  -0.000021
    16  H    0.221510   0.042597
    17  H    0.233529   0.008558
    18  H    0.410589  -0.010760
 Sum of Mulliken charges =   1.00000   1.00000

 Dipole moment (field-independent basis, Debye):
    X=              5.1209    Y=              1.2396    Z=             -0.5009  Tot=              5.2926
  Exact polarizability:  96.659 -12.132  72.493   0.006   3.149  52.726
 Approx polarizability:  94.604 -16.761  94.356   1.111   6.375  56.384
                          Isotropic Fermi Contact Couplings
        Atom                 a.u.       MegaHertz       Gauss      10(-4) cm-1
     1  C(13)             -0.00952     -10.70482      -3.81975      -3.57074
     2  C(13)              0.04816      54.14385      19.31987      18.06045
     3  C(13)             -0.00748      -8.40696      -2.99981      -2.80426
     4  O(17)              0.00469      -2.84038      -1.01352      -0.94745
     5  C(13)             -0.02535     -28.49929     -10.16925      -9.50634
     6  O(17)              0.17060    -103.41446     -36.90085     -34.49535

                      1                      2                      3
                      A                      A                      A
 Frequencies --     20.0759               127.6186               170.2614
 Red. masses --      9.8767                 3.4045                 2.9111
 Frc consts  --      0.0023                 0.0327                 0.0497
 IR Inten    --      0.1452                 4.0927                 2.9515

                      4                      5                      6
                      A                      A                      A
 Frequencies --    221.4561               234.1247               242.6442
 Red. masses --      3.5162                 1.9797                 3.0293
 Frc consts  --      0.1016                 0.0639                 0.1051
 IR Inten    --      9.3129                 2.3236                 8.9151

                      7                      8                      9
                      A                      A                      A
 Frequencies --    280.6799               285.4189               313.4530
 Red. masses --      1.9046                 1.3698                 3.0429
 Frc consts  --      0.0884                 0.0657                 0.1762
 IR Inten    --     23.8103                90.7485                39.5047

                     10                     11                     12
                      A                      A                      A
 Frequencies --    334.7673               361.2035               416.3771
 Red. masses --      3.2473                 3.0024                 3.8151
 Frc consts  --      0.2144                 0.2308                 0.3897
 IR Inten    --      7.1911                 8.8831                 4.6380

                     13                     14                     15
                      A                      A                      A
 Frequencies --    445.5841               555.1683               561.2208
 Red. masses --      4.2915                 1.4898                 3.7091
 Frc consts  --      0.5020                 0.2705                 0.6883
 IR Inten    --      9.2194               101.9816                31.9132

                     16                     17                     18
                      A                      A                      A
 Frequencies --    726.2276               763.6871               873.3672
 Red. masses --      3.1307                 8.9546                 5.0643
 Frc consts  --      0.9728                 3.0770                 2.2759
 IR Inten    --     54.0716                 3.7158                14.8409

                     19                     20                     21
                      A                      A                      A
 Frequencies --    914.4316               948.2020               998.4099
 Red. masses --      3.1477                 1.4191                 1.1903
 Frc consts  --      1.5508                 0.7517                 0.6990
 IR Inten    --     61.0671                 1.3330                49.7009

                     22                     23                     24
                      A                      A                      A
 Frequencies --   1043.2563              1129.5840              1158.6247
 Red. masses --      1.4624                 3.7332                 1.6183
 Frc consts  --      0.9378                 2.8065                 1.2799
 IR Inten    --     58.0550                45.4406                 5.7790

                     25                     26                     27
                      A                      A                      A
 Frequencies --   1171.7767              1202.5692              1220.3954
 Red. masses --      1.3028                 1.8491                 1.7000
 Frc consts  --      1.0540                 1.5755                 1.4918
 IR Inten    --     15.1694                50.8359                 5.8950

                     28                     29                     30
                      A                      A                      A
 Frequencies --   1266.1028              1315.4936              1323.2339
 Red. masses --      1.2787                 2.1573                 1.4302
 Frc consts  --      1.2077                 2.1995                 1.4754
 IR Inten    --     42.2475                83.4623                12.6514

                     31                     32                     33
                      A                      A                      A
 Frequencies --   1399.6627              1424.8212              1445.0116
 Red. masses --      1.2561                 1.3326                 1.2444
 Frc consts  --      1.4498                 1.5940                 1.5310
 IR Inten    --     33.5025                57.6211                13.7898

                     34                     35                     36
                      A                      A                      A
 Frequencies --   1466.2765              1472.6021              1483.5749
 Red. masses --      1.2121                 1.1595                 3.8804
 Frc consts  --      1.5353                 1.4815                 5.0320
 IR Inten    --     18.2175                 4.0047               155.7990

                     37                     38                     39
                      A                      A                      A
 Frequencies --   1506.0236              1518.3600              1773.6979
 Red. masses --      1.1131                 1.2219                14.2666
 Frc consts  --      1.4875                 1.6597                26.4441
 IR Inten    --     11.3495                 5.0525               294.5029

                     40                     41                     42
                      A                      A                      A
 Frequencies --   3036.6903              3043.6051              3049.8298
 Red. masses --      1.0602                 1.0394                 1.0574
 Frc consts  --      5.7604                 5.6730                 5.7949
 IR Inten    --     15.7881                13.4296                 5.7661

                     43                     44                     45
                      A                      A                      A
 Frequencies --   3118.1784              3144.0578              3182.1833
 Red. masses --      1.1116                 1.1026                 1.1038
 Frc consts  --      6.3678                 6.4216                 6.5855
 IR Inten    --      5.4447                12.4180                91.5803

                     46                     47                     48
                      A                      A                      A
 Frequencies --   3187.6719              3221.5248              3751.5721
 Red. masses --      1.0788                 1.1006                 1.0675
 Frc consts  --      6.4584                 6.7298                 8.8524
 IR Inten    --    461.1078               177.7162               238.4264

 Optimization completed.
    -- Stationary point found.
 Normal termination of Gaussian 16 at Mon Jul 10 20:31:34 2023.
