 Gaussian 16, Revision B.01,
 Gaussian 16:  ES64L-G16RevB.01 20-Dec-2017

 --------------------------------------------------------------
 #T wB97XD//def2svpp Volume=tight Geom=AllCheckpoint Guess=Read
 --------------------------------------------------------------
 Structure from the checkpoint file:  "11.chk"
 -----
 Dimer
 -----
 Charge =  0 Multiplicity = 1

                         Standard orientation:
 ---------------------------------------------------------------------
 Center     Atomic      Atomic             Coordinates (Angstroms)
 Number     Number       Type             X           Y           Z
 ---------------------------------------------------------------------
      1          6           0       -2.604613   -0.857824    0.082637
      2          6           0       -1.407065   -0.433445    0.931646
      3          6           0       -0.085026   -0.165820    0.180001
      4          6           0       -0.263668    0.801415   -1.007983
      5          6           0       -0.794573    2.194776   -0.675105
      6          6           0        0.898784    0.410348    1.219726
      7          8           0        2.189664    0.689215    0.707109
      8          6           0        0.488720   -1.501403   -0.349121
      9          8           0        1.686085   -1.366936   -1.060847
     10          1           0       -3.467242   -1.086802    0.731133
     11          1           0       -2.393561   -1.760678   -0.514815
     12          1           0       -2.919350   -0.061210   -0.612702
     13          1           0       -1.215449   -1.211855    1.694504
     14          1           0       -1.685606    0.472850    1.501118
     15          1           0       -0.934926    0.324548   -1.743918
     16          1           0        0.702728    0.882440   -1.534836
     17          1           0       -1.781091    2.155596   -0.181540
     18          1           0       -0.909744    2.791990   -1.595542
     19          1           0       -0.115979    2.756292   -0.007788
     20          1           0        1.054926   -0.331610    2.020876
     21          1           0        0.471512    1.313345    1.698113
     22          1           0        2.140370    1.465236    0.132168
     23          1           0       -0.231809   -1.971022   -1.040136
     24          1           0        0.607541   -2.193690    0.514618
     25          1           0        2.276331   -0.811951   -0.522153
 ---------------------------------------------------------------------

 SCF Done:  E(RwB97XD) =  -426.344870866     A.U. after    1 cycles

 The electronic state is 1-A.
 Alpha  occ. eigenvalues --  -19.27209 -19.22713 -10.34474 -10.32680 -10.30657
 Alpha  occ. eigenvalues --  -10.29773 -10.29245 -10.29182 -10.28782  -1.13314
 Alpha  occ. eigenvalues --   -1.09312  -0.92311  -0.84593  -0.81879  -0.76561
 Alpha  occ. eigenvalues --   -0.72303  -0.71395  -0.63786  -0.62237  -0.58119
 Alpha  occ. eigenvalues --   -0.56871  -0.54412  -0.53224  -0.51171  -0.50539
 Alpha  occ. eigenvalues --   -0.49610  -0.48501  -0.46659  -0.45567  -0.45293
 Alpha  occ. eigenvalues --   -0.44027  -0.42831  -0.41955  -0.40084  -0.38793
 Alpha  occ. eigenvalues --   -0.35474  -0.33444
 Alpha virt. eigenvalues --    0.10881   0.13615   0.15615   0.15769   0.18152
 Alpha virt. eigenvalues --    0.18559   0.19548   0.20166   0.21202   0.22162
 Alpha virt. eigenvalues --    0.22945   0.23859   0.24604   0.25472   0.26609

 Mulliken charges:
               1
     1  C   -0.318777
     2  C   -0.198507
     3  C   -0.307469
     4  C   -0.211999
     5  C   -0.319609
     6  C    0.047801
     7  O   -0.498303
     8  C    0.101885
     9  O   -0.504656
    10  H    0.123812
    11  H    0.126888
    12  H    0.123893
    13  H    0.103278
    14  H    0.106125
    15  H    0.113727
    16  H    0.102816
    17  H    0.124332
    18  H    0.128326
    19  H    0.106744
    20  H    0.108958
    21  H    0.107547
    22  H    0.332869
    23  H    0.098265
    24  H    0.079388
    25  H    0.322666
 Sum of Mulliken charges =   0.00000

 Dipole moment (field-independent basis, Debye):
    X=             -1.7062    Y=              1.9808    Z=              1.0761  Tot=              2.8271
 Evaluate density.
 Using the total density.
 Monte-Carlo method of calculating molar volume:
 based on  0.001 e/bohr**3 density envelope.
 Number of points per bohr**3 =  100 CutOff= 1.00D-04
 Using the SCF density.
 There are      1920 points.  Will hold      1920 in memory.
 LenV=  1048221091 MDV=  1048576000.
 Box volume = 7085.040 fraction occupied=0.173
 Integrated density= 6.7053548735098587D+01 error=-6.9464512649014125D+00

 Normal termination of Gaussian 16 at Fri Feb  3 13:10:32 2023.
