 Gaussian 16, Revision B.01,
 Gaussian 16:  ES64L-G16RevB.01 20-Dec-2017

 ----------------------------------------------------------------------
 #T wB97XD/def2svpp opt=tight freq int(grid=ultrafine) scf=(verytight,q
 c) Volume=tight
 ----------------------------------------------------------------------
 -------
 Monomer
 -------
 Symbolic Z-matrix:
 Charge =  0 Multiplicity = 1

 SCF Done:  E(RwB97XD) =  -426.344870866     a.u. after    7 cycles
 Optimization completed.
    -- Stationary point found.

 1\1\GINC-C122\FOpt\RwB97XD\def2SVPP\C7H16O2\PETERCHAO1\06-Feb-2023\0\\
 #T wB97XD/def2svpp opt=tight freq int(grid=ultrafine) scf=(verytight,q
 c) Volume=tight\\Monomer\\0,1\C,-2.604613,-0.857824,0.082637\C,-1.4070
 65,-0.433445,0.931646\C,-0.085026,-0.16582,0.180001\C,-0.263668,0.8014
 15,-1.007983\C,-0.794573,2.194776,-0.675105\C,0.898784,0.410348,1.2197
 26\O,2.189664,0.689215,0.707109\C,0.48872,-1.501403,-0.349121\O,1.6860
 85,-1.366936,-1.060847\H,-3.467242,-1.086802,0.731133\H,-2.393561,-1.7
 60678,-0.514815\H,-2.91935,-0.06121,-0.612702\H,-1.215449,-1.211855,1.

 Normal termination of Gaussian 16 at Mon Feb  6 10:23:18 2023.

 ---------------------------------------------------------------------
 #T Geom=AllCheck Guess=TCheck SCRF=Check GenChk RwB97XD/def2SVPP Freq
 ---------------------------------------------------------------------
 Structure from the checkpoint file:  "11.chk"
 -------
 Monomer
 -------
 Charge =  0 Multiplicity = 1

                         Standard orientation:
 ---------------------------------------------------------------------
 Center     Atomic      Atomic             Coordinates (Angstroms)
 Number     Number       Type             X           Y           Z
 ---------------------------------------------------------------------
      1          6           0       -2.604613   -0.857825    0.082637
      2          6           0       -1.407065   -0.433445    0.931646
      3          6           0       -0.085026   -0.165820    0.180001
      4          6           0       -0.263668    0.801415   -1.007983
      5          6           0       -0.794574    2.194776   -0.675105
      6          6           0        0.898784    0.410348    1.219726
      7          8           0        2.189664    0.689216    0.707109
      8          6           0        0.488720   -1.501403   -0.349121
      9          8           0        1.686085   -1.366935   -1.060847
     10          1           0       -3.467242   -1.086803    0.731133
     11          1           0       -2.393560   -1.760679   -0.514815
     12          1           0       -2.919350   -0.061211   -0.612702
     13          1           0       -1.215449   -1.211855    1.694504
     14          1           0       -1.685606    0.472850    1.501118
     15          1           0       -0.934926    0.324548   -1.743918
     16          1           0        0.702728    0.882440   -1.534836
     17          1           0       -1.781092    2.155596   -0.181540
     18          1           0       -0.909745    2.791990   -1.595542
     19          1           0       -0.115980    2.756292   -0.007788
     20          1           0        1.054926   -0.331610    2.020876
     21          1           0        0.471512    1.313345    1.698113
     22          1           0        2.140370    1.465237    0.132168
     23          1           0       -0.231808   -1.971022   -1.040136
     24          1           0        0.607542   -2.193690    0.514618
     25          1           0        2.276331   -0.811950   -0.522153
 ---------------------------------------------------------------------

 SCF Done:  E(RwB97XD) =  -426.344870866     a.u. after    1 cycles

 The electronic state is 1-A.
 Alpha  occ. eigenvalues --  -19.27209 -19.22713 -10.34474 -10.32680 -10.30657
 Alpha  occ. eigenvalues --  -10.29773 -10.29245 -10.29182 -10.28782  -1.13314
 Alpha  occ. eigenvalues --   -1.09312  -0.92311  -0.84593  -0.81879  -0.76561
 Alpha  occ. eigenvalues --   -0.72303  -0.71395  -0.63786  -0.62237  -0.58119
 Alpha  occ. eigenvalues --   -0.56871  -0.54412  -0.53224  -0.51171  -0.50539
 Alpha  occ. eigenvalues --   -0.49610  -0.48501  -0.46659  -0.45567  -0.45293
 Alpha  occ. eigenvalues --   -0.44027  -0.42831  -0.41955  -0.40084  -0.38793
 Alpha  occ. eigenvalues --   -0.35474  -0.33444
 Alpha virt. eigenvalues --    0.10881   0.13615   0.15615   0.15769   0.18152
 Alpha virt. eigenvalues --    0.18559   0.19548   0.20166   0.21202   0.22162
 Alpha virt. eigenvalues --    0.22945   0.23859   0.24604   0.25472   0.26609

 Mulliken charges:
               1
     1  C   -0.318778
     2  C   -0.198507
     3  C   -0.307470
     4  C   -0.211999
     5  C   -0.319609
     6  C    0.047801
     7  O   -0.498303
     8  C    0.101886
     9  O   -0.504656
    10  H    0.123812
    11  H    0.126888
    12  H    0.123893
    13  H    0.103278
    14  H    0.106125
    15  H    0.113727
    16  H    0.102816
    17  H    0.124332
    18  H    0.128326
    19  H    0.106744
    20  H    0.108958
    21  H    0.107547
    22  H    0.332869
    23  H    0.098265
    24  H    0.079389
    25  H    0.322666
 Sum of Mulliken charges =  -0.00000

 Dipole moment (field-independent basis, Debye):
    X=             -1.7062    Y=              1.9808    Z=              1.0761  Tot=              2.8271
  Exact polarizability:  82.550   1.358  81.225  -0.508  -2.226  75.304
 Approx polarizability:  85.508   1.077  84.103  -1.349  -0.922  83.729
   1 Symmetry operations used in ECPInt.
 ECPInt:  NShTT=    3741 NPrTT=   15043 LenC2=    3717 LenP2D=   11843.
 LDataN:  DoStor=T MaxTD1= 6 Len=  172
 Calling FoFJK, ICntrl=    100127 FMM=F ISym2X=0 I1Cent= 0 IOpClX= 0 NMat=1 NMatS=1 NMatT=0.
 Full mass-weighted force constant matrix:
 Low frequencies ---  -11.6867   -5.9108    0.0004    0.0009    0.0010   10.3047
 Low frequencies ---   96.3102  100.2846  142.9599
 Diagonal vibrational polarizability:

                      1                      2                      3
                      A                      A                      A
 Frequencies --     96.3036               100.2814               142.9577
 Red. masses --      1.7041                 2.6189                 3.0567
 Frc consts  --      0.0093                 0.0155                 0.0368
 IR Inten    --      0.3055                 1.7732                 4.8957

                      4                      5                      6
                      A                      A                      A
 Frequencies --    171.6916               194.4481               239.1295
 Red. masses --      2.5214                 2.6156                 1.1431
 Frc consts  --      0.0438                 0.0583                 0.0385
 IR Inten    --      1.3743                 1.2871                 0.1283

                      7                      8                      9
                      A                      A                      A
 Frequencies --    261.6865               280.3993               318.9768
 Red. masses --      2.8505                 2.0933                 1.9523
 Frc consts  --      0.1150                 0.0970                 0.1170
 IR Inten    --      1.5704                 2.0812                 0.9859

                     10                     11                     12
                      A                      A                      A
 Frequencies --    341.5384               368.7758               377.9851
 Red. masses --      1.9535                 1.4947                 1.9013
 Frc consts  --      0.1343                 0.1198                 0.1600
 IR Inten    --     37.9956                59.1837                38.4214

                     13                     14                     15
                      A                      A                      A
 Frequencies --    408.9470               443.3859               515.0318
 Red. masses --      3.7091                 2.2546                 2.7285
 Frc consts  --      0.3655                 0.2611                 0.4264
 IR Inten    --     16.7689                25.3303                 7.4019

                     16                     17                     18
                      A                      A                      A
 Frequencies --    592.3413               664.2337               745.9965
 Red. masses --      2.1912                 1.2209                 2.3161
 Frc consts  --      0.4530                 0.3174                 0.7594
 IR Inten    --     15.0683               117.5416                21.1183

                     19                     20                     21
                      A                      A                      A
 Frequencies --    776.8938               805.5205               911.4734
 Red. masses --      1.2498                 1.2876                 1.8740
 Frc consts  --      0.4444                 0.4922                 0.9173
 IR Inten    --      6.6966                 7.1129                 1.5995

                     22                     23                     24
                      A                      A                      A
 Frequencies --    949.3262               962.8631              1018.9558
 Red. masses --      1.6202                 1.6815                 1.5627
 Frc consts  --      0.8603                 0.9185                 0.9560
 IR Inten    --     11.3724                 8.2158                 5.2860

                     25                     26                     27
                      A                      A                      A
 Frequencies --   1032.4613              1069.9115              1078.0475
 Red. masses --      1.5938                 1.5533                 2.2660
 Frc consts  --      1.0010                 1.0476                 1.5516
 IR Inten    --     10.1821                 5.5150                 0.5791

                     28                     29                     30
                      A                      A                      A
 Frequencies --   1097.0064              1127.6361              1161.6438
 Red. masses --      2.3181                 3.8700                 3.9326
 Frc consts  --      1.6436                 2.8994                 3.1266
 IR Inten    --      3.4048                64.0334                79.7599

                     31                     32                     33
                      A                      A                      A
 Frequencies --   1181.5667              1197.2337              1243.7232
 Red. masses --      1.4579                 1.8211                 2.0018
 Frc consts  --      1.1992                 1.5380                 1.8244
 IR Inten    --     46.3189                17.8233                 2.7747

                     34                     35                     36
                      A                      A                      A
 Frequencies --   1256.9977              1302.4204              1313.8541
 Red. masses --      1.4505                 1.3186                 1.3411
 Frc consts  --      1.3503                 1.3179                 1.3640
 IR Inten    --     26.0476                 3.8052                11.3289

                     37                     38                     39
                      A                      A                      A
 Frequencies --   1337.3952              1387.0581              1397.3107
 Red. masses --      1.3122                 1.3726                 1.3173
 Frc consts  --      1.3828                 1.5559                 1.5154
 IR Inten    --      1.5509                 2.8557                 1.0078

                     40                     41                     42
                      A                      A                      A
 Frequencies --   1403.3166              1412.7750              1431.7465
 Red. masses --      1.4205                 1.2683                 1.3486
 Frc consts  --      1.6482                 1.4915                 1.6289
 IR Inten    --      7.6833                13.7824                 2.7765

                     43                     44                     45
                      A                      A                      A
 Frequencies --   1434.4891              1444.3234              1483.0314
 Red. masses --      1.3872                 1.3618                 1.1159
 Frc consts  --      1.6819                 1.6738                 1.4460
 IR Inten    --      9.1318                13.1861                30.7310

                     46                     47                     48
                      A                      A                      A
 Frequencies --   1484.8209              1492.9973              1495.9240
 Red. masses --      1.0927                 1.1028                 1.0664
 Frc consts  --      1.4194                 1.4484                 1.4061
 IR Inten    --     29.0308                14.6028                17.7054

                     49                     50                     51
                      A                      A                      A
 Frequencies --   1500.1355              1507.2643              1507.9980
 Red. masses --      1.0600                 1.0598                 1.0732
 Frc consts  --      1.4054                 1.4185                 1.4379
 IR Inten    --      4.7704                23.5925                10.3530

                     52                     53                     54
                      A                      A                      A
 Frequencies --   1515.7822              1520.4122              2960.7883
 Red. masses --      1.0713                 1.0826                 1.0730
 Frc consts  --      1.4502                 1.4745                 5.5418
 IR Inten    --     10.2411                 0.8871                74.1062

                     55                     56                     57
                      A                      A                      A
 Frequencies --   3023.4420              3027.5055              3033.8202
 Red. masses --      1.0646                 1.0565                 1.0481
 Frc consts  --      5.7337                 5.7056                 5.6835
 IR Inten    --      7.8438                30.2236                55.5814

                     58                     59                     60
                      A                      A                      A
 Frequencies --   3040.8977              3057.3831              3071.7954
 Red. masses --      1.0389                 1.0649                 1.1033
 Frc consts  --      5.6604                 5.8650                 6.1338
 IR Inten    --     15.5181                12.6971                20.4194

                     61                     62                     63
                      A                      A                      A
 Frequencies --   3094.0240              3097.4713              3105.8263
 Red. masses --      1.0950                 1.1012                 1.1025
 Frc consts  --      6.1761                 6.2251                 6.2658
 IR Inten    --     26.7782                12.3085                34.5926

                     64                     65                     66
                      A                      A                      A
 Frequencies --   3119.3568              3129.7371              3130.3792
 Red. masses --      1.1032                 1.1040                 1.1041
 Frc consts  --      6.3246                 6.3712                 6.3748
 IR Inten    --     36.6591                44.4851                 4.7695

                     67                     68                     69
                      A                      A                      A
 Frequencies --   3137.9162              3667.2344              3775.8416
 Red. masses --      1.1044                 1.0654                 1.0659
 Frc consts  --      6.4072                 8.4417                 8.9538
 IR Inten    --     24.9152               141.4806                34.9039

                           ! Non-Optimized Parameters !

 1\1\GINC-C122\Freq\RwB97XD\def2SVPP\C7H16O2\PETERCHAO1\06-Feb-2023\0\\
 #T Geom=AllCheck Guess=TCheck SCRF=Check GenChk RwB97XD/def2SVPP Freq\
 \Monomer\\0,1\C,-2.604613,-0.857824,0.082637\C,-1.407065,-0.433445,0.9
 31646\C,-0.085026,-0.16582,0.180001\C,-0.263668,0.801415,-1.007983\C,-
 0.794573,2.194776,-0.675105\C,0.898784,0.410348,1.219726\O,2.189664,0.
 689215,0.707109\C,0.48872,-1.501403,-0.349121\O,1.686085,-1.366936,-1.
 060847\H,-3.467242,-1.086802,0.731133\H,-2.393561,-1.760678,-0.514815\
 H,-2.91935,-0.06121,-0.612702\H,-1.215449,-1.211855,1.694504\H,-1.6856

 Normal termination of Gaussian 16 at Mon Feb  6 10:26:37 2023.
