 Gaussian 16, Revision B.01,
 Gaussian 16:  ES64L-G16RevB.01 20-Dec-2017

 ----------------------------------------------------------------------
 #T wB97XD/def2svpp opt=tight freq int(grid=ultrafine) scf=(verytight,q
 c) Volume=tight
 ----------------------------------------------------------------------
 -----
 Dimer
 -----
 Symbolic Z-matrix:
 Charge =  0 Multiplicity = 1

 SCF Done:  E(RwB97XD) =  -538.548905555     a.u. after    7 cycles
 SCF Done:  E(RwB97XD) =  -538.551289366     a.u. after    6 cycles
 SCF Done:  E(RwB97XD) =  -538.551731067     a.u. after    5 cycles
 SCF Done:  E(RwB97XD) =  -538.552051622     a.u. after    6 cycles
 SCF Done:  E(RwB97XD) =  -538.552140346     a.u. after    5 cycles
 SCF Done:  E(RwB97XD) =  -538.552244882     a.u. after    5 cycles
 SCF Done:  E(RwB97XD) =  -538.552296572     a.u. after    5 cycles
 SCF Done:  E(RwB97XD) =  -538.552310813     a.u. after    4 cycles
 SCF Done:  E(RwB97XD) =  -538.552333373     a.u. after    3 cycles
 SCF Done:  E(RwB97XD) =  -538.552352834     a.u. after    5 cycles
 SCF Done:  E(RwB97XD) =  -538.552357155     a.u. after    2 cycles
 SCF Done:  E(RwB97XD) =  -538.552357155     a.u. after    2 cycles
 SCF Done:  E(RwB97XD) =  -538.552357155     a.u. after    2 cycles
 SCF Done:  E(RwB97XD) =  -538.552357156     a.u. after    2 cycles
 SCF Done:  E(RwB97XD) =  -538.552357156     a.u. after    2 cycles
 SCF Done:  E(RwB97XD) =  -538.552357156     a.u. after    2 cycles
 SCF Done:  E(RwB97XD) =  -538.552357156     a.u. after    2 cycles
 SCF Done:  E(RwB97XD) =  -538.552357155     a.u. after    2 cycles
 SCF Done:  E(RwB97XD) =  -538.552357156     a.u. after    2 cycles
 Optimization completed.
    -- Stationary point found.

 1\1\GINC-C272\FOpt\RwB97XD\def2SVPP\C6H16O4\PETERCHAO1\01-Apr-2024\0\\
 #T wB97XD/def2svpp opt=tight freq int(grid=ultrafine) scf=(verytight,q
 c) Volume=tight\\Dimer\\0,1\C,3.2552866304,-0.5991704573,-0.9377294213
 \C,1.8952079526,-0.2250022467,-0.3681382422\O,1.1608572036,-1.40127162
 97,-0.0218751527\C,2.0024261862,0.7347009002,0.8188138477\O,0.79195731
 31,1.3313587082,1.1872903954\H,3.7793511899,0.2875850324,-1.3309496609
 \H,3.1348480481,-1.3251978898,-1.7579205973\H,3.8978878737,-1.05476045
 91,-0.1603895814\H,1.2863157088,0.2644413285,-1.1450016861\H,1.7026242

 Normal termination of Gaussian 16 at Mon Apr  1 15:27:06 2024.

 ---------------------------------------------------------------------
 #T Geom=AllCheck Guess=TCheck SCRF=Check GenChk RwB97XD/def2SVPP Freq
 ---------------------------------------------------------------------
 Structure from the checkpoint file:  "dimer.chk"
 -----
 Dimer
 -----
 Charge =  0 Multiplicity = 1

                         Standard orientation:
 ---------------------------------------------------------------------
 Center     Atomic      Atomic             Coordinates (Angstroms)
 Number     Number       Type             X           Y           Z
 ---------------------------------------------------------------------
      1          6           0       -3.210461   -0.774171    0.865519
      2          6           0       -1.865872   -0.299176    0.335699
      3          8           0       -1.081506   -1.412340   -0.098371
      4          6           0       -2.010336    0.746579   -0.771960
      5          8           0       -0.825177    1.420888   -1.084552
      6          1           0       -3.772616    0.055733    1.324695
      7          1           0       -3.061668   -1.557463    1.626210
      8          1           0       -3.831107   -1.193011    0.050579
      9          1           0       -1.280334    0.152005    1.152646
     10          1           0       -1.598216   -1.928846   -0.734605
     11          1           0       -2.732869    1.513174   -0.445640
     12          1           0       -2.443904    0.253409   -1.670388
     13          1           0       -0.123604    0.791755   -1.377346
     14          6           0        3.181131   -1.164461   -0.048782
     15          6           0        2.218154    0.004336   -0.216866
     16          8           0        1.194253   -0.336160   -1.146231
     17          6           0        1.629719    0.455232    1.122501
     18          8           0        0.944931    1.669904    1.087438
     19          1           0        2.675900   -2.018247    0.439708
     20          1           0        4.052002   -0.882548    0.567313
     21          1           0        3.541803   -1.498027   -1.035232
     22          1           0        2.745230    0.862176   -0.666142
     23          1           0        0.582581   -0.976819   -0.725947
     24          1           0        2.452251    0.576319    1.848149
     25          1           0        0.990037   -0.375826    1.502977
     26          1           0        0.290488    1.677839    0.360086
 ---------------------------------------------------------------------

 SCF Done:  E(RwB97XD) =  -538.552357156     a.u. after    1 cycles

 The electronic state is 1-A.
 Alpha  occ. eigenvalues --  -19.28796 -19.25396 -19.25058 -19.22239 -10.36109
 Alpha  occ. eigenvalues --  -10.34743 -10.33881 -10.32523 -10.30479 -10.28343
 Alpha  occ. eigenvalues --   -1.15046  -1.12215  -1.10740  -1.08442  -0.87855
 Alpha  occ. eigenvalues --   -0.85469  -0.78320  -0.75910  -0.72357  -0.69845
 Alpha  occ. eigenvalues --   -0.62961  -0.61113  -0.59537  -0.57755  -0.55518
 Alpha  occ. eigenvalues --   -0.54815  -0.53015  -0.52619  -0.52190  -0.50084
 Alpha  occ. eigenvalues --   -0.48746  -0.47651  -0.46785  -0.45463  -0.44016
 Alpha  occ. eigenvalues --   -0.43554  -0.42429  -0.40176  -0.38419  -0.37312
 Alpha  occ. eigenvalues --   -0.34796  -0.33031
 Alpha virt. eigenvalues --    0.10803   0.14579   0.15014   0.16168   0.16767
 Alpha virt. eigenvalues --    0.18349   0.19079   0.20382   0.21239   0.21649
 Alpha virt. eigenvalues --    0.22864   0.23464   0.23758   0.25121   0.25718

 Mulliken charges:
               1
     1  C   -0.326015
     2  C   -0.044888
     3  O   -0.509468
     4  C    0.051785
     5  O   -0.510819
     6  H    0.136826
     7  H    0.143833
     8  H    0.110814
     9  H    0.132067
    10  H    0.329215
    11  H    0.113072
    12  H    0.079345
    13  H    0.335890
    14  C   -0.315424
    15  C   -0.000383
    16  O   -0.540051
    17  C    0.020358
    18  O   -0.509550
    19  H    0.110647
    20  H    0.122218
    21  H    0.133372
    22  H    0.105202
    23  H    0.337766
    24  H    0.099938
    25  H    0.074610
    26  H    0.319641
 Sum of Mulliken charges =  -0.00000

 Dipole moment (field-independent basis, Debye):
    X=             -2.4803    Y=             -3.5195    Z=             -0.2745  Tot=              4.3144
  Exact polarizability:  94.701  -0.772  74.802   1.359   0.448  72.401
 Approx polarizability:  86.247   0.486  81.877   2.433   1.486  78.541
   1 Symmetry operations used in ECPInt.
 ECPInt:  NShTT=    4278 NPrTT=   17198 LenC2=    4219 LenP2D=   12809.
 LDataN:  DoStor=T MaxTD1= 6 Len=  172
 Calling FoFJK, ICntrl=    100127 FMM=F ISym2X=0 I1Cent= 0 IOpClX= 0 NMat=1 NMatS=1 NMatT=0.
 Full mass-weighted force constant matrix:
 Low frequencies ---   -7.3516    0.0009    0.0010    0.0013    1.8438    6.9819
 Low frequencies ---   52.1665   75.7146   80.8061
 Diagonal vibrational polarizability:

                      1                      2                      3
                      A                      A                      A
 Frequencies --     52.1474                75.6901                80.8023
 Red. masses --      3.9901                 3.7257                 3.3330
 Frc consts  --      0.0064                 0.0126                 0.0128
 IR Inten    --      3.6723                 1.4203                 2.2456

                      4                      5                      6
                      A                      A                      A
 Frequencies --    131.6469               135.4240               184.9462
 Red. masses --      4.1245                 4.3367                 2.9455
 Frc consts  --      0.0421                 0.0469                 0.0594
 IR Inten    --      7.7648                 3.0460                 0.1192

                      7                      8                      9
                      A                      A                      A
 Frequencies --    210.0253               239.6389               245.7146
 Red. masses --      2.7038                 1.4623                 1.2074
 Frc consts  --      0.0703                 0.0495                 0.0430
 IR Inten    --      8.4609                 2.5487                 1.1542

                     10                     11                     12
                      A                      A                      A
 Frequencies --    265.4196               284.7405               307.3573
 Red. masses --      2.4993                 2.9635                 3.0843
 Frc consts  --      0.1037                 0.1416                 0.1717
 IR Inten    --     11.5504                 0.2272                 3.0413

                     13                     14                     15
                      A                      A                      A
 Frequencies --    365.9882               398.4782               413.4609
 Red. masses --      1.1291                 3.0319                 3.9939
 Frc consts  --      0.0891                 0.2836                 0.4023
 IR Inten    --     81.7160                25.2744                10.3281

                     16                     17                     18
                      A                      A                      A
 Frequencies --    474.3492               493.7431               543.6347
 Red. masses --      2.0649                 2.1333                 3.2349
 Frc consts  --      0.2737                 0.3064                 0.5633
 IR Inten    --      8.2089                 4.7854                 9.5056

                     19                     20                     21
                      A                      A                      A
 Frequencies --    552.3283               678.4781               731.5444
 Red. masses --      3.3255                 1.0945                 1.0614
 Frc consts  --      0.5977                 0.2968                 0.3347
 IR Inten    --     29.1820               155.8823               245.0601

                     22                     23                     24
                      A                      A                      A
 Frequencies --    852.0544               863.0552               880.7867
 Red. masses --      1.7436                 2.2779                 1.2657
 Frc consts  --      0.7458                 0.9997                 0.5785
 IR Inten    --     15.2740                43.4482               177.9873

                     25                     26                     27
                      A                      A                      A
 Frequencies --    940.0072               945.7596               958.9144
 Red. masses --      1.4310                 1.4526                 1.8124
 Frc consts  --      0.7450                 0.7655                 0.9819
 IR Inten    --      6.5010                 9.9538                15.9102

                     28                     29                     30
                      A                      A                      A
 Frequencies --    964.8431              1086.5227              1122.9726
 Red. masses --      1.8229                 1.5791                 2.0243
 Frc consts  --      0.9999                 1.0983                 1.5040
 IR Inten    --     17.8300                48.8985                31.3054

                     31                     32                     33
                      A                      A                      A
 Frequencies --   1135.5833              1147.0450              1170.0493
 Red. masses --      2.8553                 2.3337                 3.8856
 Frc consts  --      2.1694                 1.8091                 3.1341
 IR Inten    --     99.7950                 6.5058                53.3249

                     34                     35                     36
                      A                      A                      A
 Frequencies --   1175.5215              1186.9777              1191.3032
 Red. masses --      3.7109                 2.2412                 2.2687
 Frc consts  --      3.0213                 1.8604                 1.8970
 IR Inten    --     69.8882                59.9688                56.6923

                     37                     38                     39
                      A                      A                      A
 Frequencies --   1254.2941              1269.5148              1331.8366
 Red. masses --      1.0998                 1.1058                 1.3115
 Frc consts  --      1.0195                 1.0500                 1.3706
 IR Inten    --     25.4377                60.8025                 0.4874

                     40                     41                     42
                      A                      A                      A
 Frequencies --   1339.1096              1349.2903              1376.5702
 Red. masses --      1.3691                 1.2571                 1.2977
 Frc consts  --      1.4465                 1.3484                 1.4488
 IR Inten    --     13.6593                 3.1020                13.3353

                     43                     44                     45
                      A                      A                      A
 Frequencies --   1416.5784              1417.7115              1432.2254
 Red. masses --      1.2549                 1.2945                 1.3249
 Frc consts  --      1.4837                 1.5330                 1.6013
 IR Inten    --      5.9261                 7.1564                13.4769

                     46                     47                     48
                      A                      A                      A
 Frequencies --   1439.6259              1452.0495              1461.4087
 Red. masses --      1.2990                 1.3163                 1.2121
 Frc consts  --      1.5862                 1.6352                 1.5252
 IR Inten    --     43.2037                30.8435                31.6145

                     49                     50                     51
                      A                      A                      A
 Frequencies --   1473.5170              1485.2522              1488.0795
 Red. masses --      1.2243                 1.0742                 1.0954
 Frc consts  --      1.5662                 1.3962                 1.4292
 IR Inten    --     59.4982                10.8342                 4.3296

                     52                     53                     54
                      A                      A                      A
 Frequencies --   1492.3311              1493.7932              1499.6218
 Red. masses --      1.0631                 1.0518                 1.1040
 Frc consts  --      1.3949                 1.3828                 1.4628
 IR Inten    --      8.8152                11.0099                 3.7736

                     55                     56                     57
                      A                      A                      A
 Frequencies --   1508.2433              1520.3961              2946.1557
 Red. masses --      1.1203                 1.1331                 1.0732
 Frc consts  --      1.5015                 1.5432                 5.4883
 IR Inten    --     27.5928               116.8341                57.1223

                     58                     59                     60
                      A                      A                      A
 Frequencies --   2974.2188              3028.2125              3031.0403
 Red. masses --      1.0720                 1.0421                 1.0394
 Frc consts  --      5.5871                 5.6303                 5.6263
 IR Inten    --     82.0595                18.9802                16.1245

                     61                     62                     63
                      A                      A                      A
 Frequencies --   3091.5778              3098.2633              3106.1461
 Red. masses --      1.0888                 1.0935                 1.0929
 Frc consts  --      6.1312                 6.1843                 6.2127
 IR Inten    --     22.3889                35.1736                26.8006

                     64                     65                     66
                      A                      A                      A
 Frequencies --   3111.6499              3125.7012              3128.7675
 Red. masses --      1.0937                 1.1017                 1.0971
 Frc consts  --      6.2395                 6.3419                 6.3277
 IR Inten    --      2.6057                41.4223                26.1752

                     67                     68                     69
                      A                      A                      A
 Frequencies --   3146.7907              3152.8871              3401.1462
 Red. masses --      1.1055                 1.1059                 1.0703
 Frc consts  --      6.4496                 6.4771                 7.2950
 IR Inten    --     13.4949                 8.7464               364.4714

                     70                     71                     72
                      A                      A                      A
 Frequencies --   3540.9968              3569.8507              3747.1052
 Red. masses --      1.0668                 1.0668                 1.0658
 Frc consts  --      7.8813                 8.0104                 8.8170
 IR Inten    --    295.9764               832.2315                31.6055

                           ! Non-Optimized Parameters !

 1\1\GINC-C272\Freq\RwB97XD\def2SVPP\C6H16O4\PETERCHAO1\01-Apr-2024\0\\
 #T Geom=AllCheck Guess=TCheck SCRF=Check GenChk RwB97XD/def2SVPP Freq\
 \Dimer\\0,1\C,3.2552866304,-0.5991704573,-0.9377294213\C,1.8952079526,
 -0.2250022467,-0.3681382422\O,1.1608572036,-1.4012716297,-0.0218751527
 \C,2.0024261862,0.7347009002,0.8188138477\O,0.7919573131,1.3313587082,
 1.1872903954\H,3.7793511899,0.2875850324,-1.3309496609\H,3.1348480481,
 -1.3251978898,-1.7579205973\H,3.8978878737,-1.0547604591,-0.1603895814
 \H,1.2863157088,0.2644413285,-1.1450016861\H,1.7026242894,-1.944340962

 Normal termination of Gaussian 16 at Mon Apr  1 15:30:28 2024.
