 Gaussian 16, Revision B.01,
 Gaussian 16:  ES64L-G16RevB.01 20-Dec-2017

 ----------------------------------------------------------------------
 #T wB97XD/def2svpp opt=tight freq int(grid=ultrafine) scf=(verytight,q
 c) Volume=tight
 ----------------------------------------------------------------------
 -----
 Dimer
 -----
 Symbolic Z-matrix:
 Charge =  0 Multiplicity = 1

 SCF Done:  E(RwB97XD) =  -653.616483600     a.u. after    7 cycles
 SCF Done:  E(RwB97XD) =  -653.620541164     a.u. after    5 cycles
 SCF Done:  E(RwB97XD) =  -653.620706723     a.u. after    5 cycles
 SCF Done:  E(RwB97XD) =  -653.620783110     a.u. after    4 cycles
 SCF Done:  E(RwB97XD) =  -653.620802180     a.u. after    5 cycles
 SCF Done:  E(RwB97XD) =  -653.620822032     a.u. after    5 cycles
 SCF Done:  E(RwB97XD) =  -653.620826143     a.u. after    2 cycles
 SCF Done:  E(RwB97XD) =  -653.620826625     a.u. after    2 cycles
 SCF Done:  E(RwB97XD) =  -653.620826716     a.u. after    2 cycles
 SCF Done:  E(RwB97XD) =  -653.620826760     a.u. after    2 cycles
 SCF Done:  E(RwB97XD) =  -653.620826782     a.u. after    2 cycles
 SCF Done:  E(RwB97XD) =  -653.620826787     a.u. after    2 cycles
 SCF Done:  E(RwB97XD) =  -653.620826790     a.u. after    2 cycles
 SCF Done:  E(RwB97XD) =  -653.620826791     a.u. after    2 cycles
 SCF Done:  E(RwB97XD) =  -653.620826792     a.u. after    2 cycles
 SCF Done:  E(RwB97XD) =  -653.620826792     a.u. after    2 cycles
 SCF Done:  E(RwB97XD) =  -653.620826792     a.u. after    2 cycles
 SCF Done:  E(RwB97XD) =  -653.620826792     a.u. after    2 cycles
 Optimization completed.
    -- Stationary point found.
 Normal termination of Gaussian 16 at Mon Apr  1 15:40:34 2024.

 ---------------------------------------------------------------------
 #T Geom=AllCheck Guess=TCheck SCRF=Check GenChk RwB97XD/def2SVPP Freq
 ---------------------------------------------------------------------
 Structure from the checkpoint file:  "dimer.chk"
 -----
 Dimer
 -----
 Charge =  0 Multiplicity = 1

                         Standard orientation:
 ---------------------------------------------------------------------
 Center     Atomic      Atomic             Coordinates (Angstroms)
 Number     Number       Type             X           Y           Z
 ---------------------------------------------------------------------
      1          6           0        4.201117    1.395699    0.000085
      2          6           0        3.581103   -0.006657    0.000017
      3          6           0        4.029750   -0.769994   -1.257204
      4          6           0        4.029681   -0.770085    1.257208
      5          6           0        2.039686   -0.005626   -0.000026
      6          7           0        1.393451    1.171575   -0.000021
      7          8           0        1.441846   -1.080790   -0.000071
      8          1           0        5.301871    1.316220    0.000117
      9          1           0        3.918413    1.972797    0.899116
     10          1           0        3.918470    1.972859   -0.898923
     11          1           0        3.583899   -1.777138   -1.274241
     12          1           0        5.129804   -0.867889   -1.272801
     13          1           0        3.719375   -0.240707   -2.175779
     14          1           0        3.719260   -0.240863    2.175804
     15          1           0        5.129735   -0.867985    1.272855
     16          1           0        3.583826   -1.777229    1.274148
     17          1           0        1.892617    2.049133    0.000024
     18          1           0        0.357974    1.181533   -0.000049
     19          6           0       -4.029755    0.769985   -1.257206
     20          6           0       -3.581103    0.006657    0.000018
     21          6           0       -4.029675    0.770094    1.257205
     22          6           0       -4.201118   -1.395699    0.000099
     23          6           0       -2.039686    0.005626   -0.000033
     24          7           0       -1.393450   -1.171575   -0.000028
     25          8           0       -1.441846    1.080790   -0.000079
     26          1           0       -3.583905    1.777129   -1.274251
     27          1           0       -5.129810    0.867880   -1.272800
     28          1           0       -3.719384    0.240693   -2.175779
     29          1           0       -3.583818    1.777237    1.274138
     30          1           0       -3.719251    0.240877    2.175804
     31          1           0       -5.129729    0.867995    1.272857
     32          1           0       -3.918479   -1.972865   -0.898908
     33          1           0       -5.301872   -1.316219    0.000139
     34          1           0       -3.918407   -1.972792    0.899130
     35          1           0       -1.892616   -2.049133    0.000018
     36          1           0       -0.357973   -1.181533   -0.000056
 ---------------------------------------------------------------------

 SCF Done:  E(RwB97XD) =  -653.620826792     a.u. after    1 cycles

 The electronic state is 1-A.
 Alpha  occ. eigenvalues --  -19.21471 -19.21471 -14.44179 -14.44178 -10.39192
 Alpha  occ. eigenvalues --  -10.39192 -10.31506 -10.31506 -10.29250 -10.29249
 Alpha  occ. eigenvalues --  -10.28117 -10.28117 -10.28116 -10.28116  -1.12145
 Alpha  occ. eigenvalues --   -1.11641  -0.98638  -0.98003  -0.90950  -0.90770
 Alpha  occ. eigenvalues --   -0.78032  -0.77981  -0.77379  -0.77378  -0.71999
 Alpha  occ. eigenvalues --   -0.70557  -0.64660  -0.64403  -0.60985  -0.60896
 Alpha  occ. eigenvalues --   -0.57258  -0.54787  -0.53747  -0.53667  -0.53036
 Alpha  occ. eigenvalues --   -0.52018  -0.50635  -0.49893  -0.49764  -0.49661
 Alpha  occ. eigenvalues --   -0.47484  -0.47435  -0.45455  -0.45251  -0.44847
 Alpha  occ. eigenvalues --   -0.44806  -0.43843  -0.43582  -0.41408  -0.41260
 Alpha  occ. eigenvalues --   -0.41237  -0.41142  -0.34737  -0.34156  -0.33878
 Alpha  occ. eigenvalues --   -0.32377
 Alpha virt. eigenvalues --    0.10818   0.11401   0.12690   0.12958   0.17178
 Alpha virt. eigenvalues --    0.17242   0.18350   0.18520   0.19186   0.19188
 Alpha virt. eigenvalues --    0.21058   0.21071   0.21168   0.21192   0.21311

 Mulliken charges:
               1
     1  C   -0.300557
     2  C   -0.287719
     3  C   -0.273355
     4  C   -0.273355
     5  C    0.230962
     6  N   -0.409724
     7  O   -0.340886
     8  H    0.123715
     9  H    0.123218
    10  H    0.123218
    11  H    0.141172
    12  H    0.113906
    13  H    0.117172
    14  H    0.117171
    15  H    0.113906
    16  H    0.141172
    17  H    0.253408
    18  H    0.286574
    19  C   -0.273355
    20  C   -0.287719
    21  C   -0.273355
    22  C   -0.300557
    23  C    0.230962
    24  N   -0.409724
    25  O   -0.340886
    26  H    0.141172
    27  H    0.113906
    28  H    0.117172
    29  H    0.141172
    30  H    0.117171
    31  H    0.113906
    32  H    0.123218
    33  H    0.123715
    34  H    0.123218
    35  H    0.253408
    36  H    0.286574
 Sum of Mulliken charges =  -0.00000

 Dipole moment (field-independent basis, Debye):
    X=              0.0000    Y=              0.0000    Z=              0.0003  Tot=              0.0003
  Exact polarizability: 145.724   0.916 124.219  -0.000   0.000 104.396
 Approx polarizability: 132.993   2.475 146.218  -0.000   0.000 111.569
   1 Symmetry operations used in ECPInt.
 ECPInt:  NShTT=    8256 NPrTT=   33144 LenC2=    7588 LenP2D=   21374.
 LDataN:  DoStor=T MaxTD1= 6 Len=  172
 Calling FoFJK, ICntrl=    100127 FMM=F ISym2X=0 I1Cent= 0 IOpClX= 0 NMat=1 NMatS=1 NMatT=0.
 Full mass-weighted force constant matrix:
 Low frequencies ---   -2.9327   -0.0009    0.0003    0.0007    2.5004    5.7845
 Low frequencies ---   17.1122   22.1016   34.7608
 Diagonal vibrational polarizability:

                      1                      2                      3
                      A                      A                      A
 Frequencies --     17.1122                22.1016                34.7494
 Red. masses --      2.7553                 3.9386                 4.4842
 Frc consts  --      0.0005                 0.0011                 0.0032
 IR Inten    --      0.3619                 2.9052                 0.0000

                      4                      5                      6
                      A                      A                      A
 Frequencies --     70.7928                77.9293                90.4499
 Red. masses --      4.8647                 6.3302                 3.7242
 Frc consts  --      0.0144                 0.0226                 0.0180
 IR Inten    --      0.0000                 7.9085                11.1000

                      7                      8                      9
                      A                      A                      A
 Frequencies --    108.9972               124.8995               221.0385
 Red. masses --      5.1766                 4.9158                 1.2920
 Frc consts  --      0.0362                 0.0452                 0.0372
 IR Inten    --      0.0000                 0.0000                 3.1193

                     10                     11                     12
                      A                      A                      A
 Frequencies --    225.4370               265.2809               268.6757
 Red. masses --      1.2293                 1.7620                 1.9521
 Frc consts  --      0.0368                 0.0731                 0.0830
 IR Inten    --      0.0000                12.5659                 0.0000

                     13                     14                     15
                      A                      A                      A
 Frequencies --    285.1168               285.1255               305.1998
 Red. masses --      1.0428                 1.0687                 2.9184
 Frc consts  --      0.0499                 0.0512                 0.1602
 IR Inten    --      5.6153                 0.0004                 0.0000

                     16                     17                     18
                      A                      A                      A
 Frequencies --    306.6841               329.0147               329.3768
 Red. masses --      2.8567                 1.1041                 1.1189
 Frc consts  --      0.1583                 0.0704                 0.0715
 IR Inten    --     19.9655                 1.9791                 0.0000

                     19                     20                     21
                      A                      A                      A
 Frequencies --    366.5033               380.5111               385.4222
 Red. masses --      2.6908                 2.7795                 2.0472
 Frc consts  --      0.2130                 0.2371                 0.1792
 IR Inten    --      0.0000                21.0150                 5.9718

                     22                     23                     24
                      A                      A                      A
 Frequencies --    385.8102               389.8098               404.3549
 Red. masses --      2.0272                 2.7364                 2.8406
 Frc consts  --      0.1778                 0.2450                 0.2736
 IR Inten    --      0.0000                33.9559                 0.0000

                     25                     26                     27
                      A                      A                      A
 Frequencies --    498.6771               499.8010               517.2425
 Red. masses --      1.1330                 1.1708                 3.2327
 Frc consts  --      0.1660                 0.1723                 0.5096
 IR Inten    --    171.6113                 0.0000                 0.0000

                     28                     29                     30
                      A                      A                      A
 Frequencies --    537.7063               592.5997               594.2919
 Red. masses --      3.3516                 3.3882                 3.4125
 Frc consts  --      0.5709                 0.7010                 0.7101
 IR Inten    --     58.8318                13.3293                 0.0000

                     31                     32                     33
                      A                      A                      A
 Frequencies --    748.5059               761.5888               778.3562
 Red. masses --      3.3745                 3.5135                 3.9294
 Frc consts  --      1.1139                 1.2007                 1.4026
 IR Inten    --      0.0000                 8.3691                 4.1910

                     34                     35                     36
                      A                      A                      A
 Frequencies --    788.0931               880.6957               888.9124
 Red. masses --      4.6948                 1.1022                 2.1338
 Frc consts  --      1.7180                 0.5037                 0.9934
 IR Inten    --      0.0000                 0.0000                 0.0000

                     37                     38                     39
                      A                      A                      A
 Frequencies --    889.6428               925.9420               960.4210
 Red. masses --      2.1433                 1.1820                 1.5621
 Frc consts  --      0.9995                 0.5971                 0.8490
 IR Inten    --     26.9519               147.9526                 0.0000

                     40                     41                     42
                      A                      A                      A
 Frequencies --    960.5066               963.9083               963.9130
 Red. masses --      1.5593                 1.5247                 1.5242
 Frc consts  --      0.8476                 0.8347                 0.8344
 IR Inten    --      1.4608                 0.0000                 2.6598

                     43                     44                     45
                      A                      A                      A
 Frequencies --    973.5318               973.5343              1055.1882
 Red. masses --      1.2406                 1.2406                 1.4152
 Frc consts  --      0.6928                 0.6927                 0.9284
 IR Inten    --      0.0001                 0.9974                 0.0000

                     46                     47                     48
                      A                      A                      A
 Frequencies --   1055.2225              1055.8555              1055.8961
 Red. masses --      1.4128                 1.3977                 1.3972
 Frc consts  --      0.9269                 0.9181                 0.9178
 IR Inten    --      0.4370                 0.0000                 0.9606

                     49                     50                     51
                      A                      A                      A
 Frequencies --   1158.7468              1168.6244              1259.2136
 Red. masses --      1.5302                 1.5434                 2.8246
 Frc consts  --      1.2105                 1.2419                 2.6388
 IR Inten    --      5.3095                 0.0000                 0.0000

                     52                     53                     54
                      A                      A                      A
 Frequencies --   1259.6754              1263.4670              1266.2538
 Red. masses --      2.8191                 2.4280                 2.4316
 Frc consts  --      2.6356                 2.2836                 2.2971
 IR Inten    --      4.3960                51.2731                 0.0000

                     55                     56                     57
                      A                      A                      A
 Frequencies --   1280.2459              1281.1964              1398.8744
 Red. masses --      2.8071                 2.7847                 1.2684
 Frc consts  --      2.7108                 2.6932                 1.4624
 IR Inten    --     30.9854                 0.0000                 0.0001

                     58                     59                     60
                      A                      A                      A
 Frequencies --   1398.8842              1403.1057              1403.1110
 Red. masses --      1.2684                 1.2894                 1.2894
 Frc consts  --      1.4624                 1.4956                 1.4957
 IR Inten    --     15.8025                 0.0002                43.4192

                     61                     62                     63
                      A                      A                      A
 Frequencies --   1423.2292              1425.9614              1458.5673
 Red. masses --      1.4251                 1.3224                 2.2217
 Frc consts  --      1.7008                 1.5843                 2.7848
 IR Inten    --     15.6630                 0.0000               171.3503

                     64                     65                     66
                      A                      A                      A
 Frequencies --   1471.1667              1471.2143              1472.9780
 Red. masses --      1.0452                 1.0452                 2.4000
 Frc consts  --      1.3328                 1.3330                 3.0680
 IR Inten    --      0.0000                 0.1931                 0.0000

                     67                     68                     69
                      A                      A                      A
 Frequencies --   1486.1361              1486.2951              1489.7019
 Red. masses --      1.0433                 1.0434                 1.0563
 Frc consts  --      1.3577                 1.3580                 1.3811
 IR Inten    --      0.0000                 1.2993                 2.5933

                     70                     71                     72
                      A                      A                      A
 Frequencies --   1489.7894              1496.1972              1496.3589
 Red. masses --      1.0676                 1.0692                 1.0722
 Frc consts  --      1.3960                 1.4102                 1.4145
 IR Inten    --      0.0000                13.4212                 0.0000

                     73                     74                     75
                      A                      A                      A
 Frequencies --   1503.0580              1503.0831              1527.2522
 Red. masses --      1.0485                 1.0485                 1.1472
 Frc consts  --      1.3956                 1.3957                 1.5765
 IR Inten    --     19.6490                 0.0000               117.7207

                     76                     77                     78
                      A                      A                      A
 Frequencies --   1528.6794              1685.5391              1688.1626
 Red. masses --      1.2014                 1.5438                 1.2994
 Frc consts  --      1.6541                 2.5841                 2.1818
 IR Inten    --      0.0000                 0.0000               129.3407

                     79                     80                     81
                      A                      A                      A
 Frequencies --   1786.9140              1818.9220              3022.8109
 Red. masses --      3.4371                 7.6057                 1.0379
 Frc consts  --      6.4662                14.8257                 5.5877
 IR Inten    --      0.0000               674.9587                 0.0000

                     82                     83                     84
                      A                      A                      A
 Frequencies --   3022.8590              3029.4491              3029.4949
 Red. masses --      1.0379                 1.0374                 1.0374
 Frc consts  --      5.5878                 5.6097                 5.6099
 IR Inten    --     36.7911                 0.0000                62.0480

                     85                     86                     87
                      A                      A                      A
 Frequencies --   3032.6142              3032.8133              3112.8546
 Red. masses --      1.0385                 1.0385                 1.1058
 Frc consts  --      5.6273                 5.6280                 6.3129
 IR Inten    --     41.1499                 0.0000                 0.0017

                     88                     89                     90
                      A                      A                      A
 Frequencies --   3112.8594              3116.3171              3116.4194
 Red. masses --      1.1058                 1.1053                 1.1053
 Frc consts  --      6.3129                 6.3242                 6.3246
 IR Inten    --     18.6294                 0.0000                43.9000

                     91                     92                     93
                      A                      A                      A
 Frequencies --   3116.7095              3116.7196              3121.0814
 Red. masses --      1.1048                 1.1048                 1.1032
 Frc consts  --      6.3231                 6.3230                 6.3316
 IR Inten    --     15.6582                 0.0000               108.3639

                     94                     95                     96
                      A                      A                      A
 Frequencies --   3121.2550              3148.6674              3148.6678
 Red. masses --      1.1031                 1.1044                 1.1044
 Frc consts  --      6.3315                 6.4509                 6.4508
 IR Inten    --      0.0000                 2.5667                 0.0014

                     97                     98                     99
                      A                      A                      A
 Frequencies --   3151.1083              3151.1219              3230.0579
 Red. masses --      1.1035                 1.1035                 1.0758
 Frc consts  --      6.4558                 6.4558                 6.6131
 IR Inten    --     32.3901                 0.0000                 0.0000

                    100                    101                    102
                      A                      A                      A
 Frequencies --   3286.4592              3694.5487              3695.0753
 Red. masses --      1.0738                 1.0828                 1.0832
 Frc consts  --      6.8336                 8.7084                 8.7135
 IR Inten    --   2363.5410               167.3633                 0.0000

                           ! Non-Optimized Parameters !
 Normal termination of Gaussian 16 at Mon Apr  1 15:48:14 2024.
