 Gaussian 16, Revision B.01,
 Gaussian 16:  ES64L-G16RevB.01 20-Dec-2017

 --------------------------------------------------------------
 #T wB97XD//def2svpp Volume=tight Geom=AllCheckpoint Guess=Read
 --------------------------------------------------------------
 Structure from the checkpoint file:  "monomer.chk"
 -------
 Monomer
 -------
 Charge =  0 Multiplicity = 1

                         Standard orientation:
 ---------------------------------------------------------------------
 Center     Atomic      Atomic             Coordinates (Angstroms)
 Number     Number       Type             X           Y           Z
 ---------------------------------------------------------------------
      1          8           0        1.172919    0.029567    2.662810
      2          6           0        0.689381    0.875998    1.650857
      3          6           0        0.202425    0.006617    0.477981
      4          6           0        1.334814   -0.924928    0.006862
      5         35           0        2.926407   -0.016683   -0.657153
      6          6           0       -0.939602   -0.870920    1.021584
      7         35           0       -1.737424   -2.087096   -0.274791
      8          6           0       -0.244208    0.884279   -0.697431
      9         35           0       -1.727771    2.085958   -0.308309
     10          1           0        1.559686    0.563910    3.367079
     11          1           0        1.479905    1.556084    1.276921
     12          1           0       -0.151220    1.499587    2.011437
     13          1           0        0.996409   -1.574373   -0.811603
     14          1           0        1.677064   -1.540101    0.849019
     15          1           0       -1.764247   -0.237128    1.376678
     16          1           0       -0.578924   -1.490577    1.852387
     17          1           0       -0.581475    0.258831   -1.536037
     18          1           0        0.580160    1.524699   -1.038650
 ---------------------------------------------------------------------

 SCF Done:  E(RwB97XD) =  -7992.58426371     A.U. after    1 cycles

 The electronic state is 1-A.
 Alpha  occ. eigenvalues -- -483.05728-483.05670-483.05626 -62.63942 -62.63883
 Alpha  occ. eigenvalues --  -62.63841 -56.44711 -56.44651 -56.44609 -56.44355
 Alpha  occ. eigenvalues --  -56.44345 -56.44296 -56.44286 -56.44254 -56.44243
 Alpha  occ. eigenvalues --  -19.27300 -10.35943 -10.35739 -10.35630 -10.35603
 Alpha  occ. eigenvalues --  -10.35353  -8.80887  -8.80827  -8.80786  -6.63428
 Alpha  occ. eigenvalues --   -6.63363  -6.63323  -6.62133  -6.62094  -6.62076
 Alpha  occ. eigenvalues --   -6.62037  -6.62036  -6.61994  -2.73793  -2.73728
 Alpha  occ. eigenvalues --   -2.73688  -2.73433  -2.73402  -2.73371  -2.73340
 Alpha  occ. eigenvalues --   -2.73332  -2.73298  -2.72370  -2.72369  -2.72314
 Alpha  occ. eigenvalues --   -2.72314  -2.72273  -2.72273  -1.13781  -0.97504
 Alpha  occ. eigenvalues --   -0.90687  -0.90358  -0.85987  -0.78274  -0.77044
 Alpha  occ. eigenvalues --   -0.75459  -0.64565  -0.63370  -0.59556  -0.56984
 Alpha  occ. eigenvalues --   -0.55320  -0.54504  -0.50727  -0.49576  -0.48451
 Alpha  occ. eigenvalues --   -0.46887  -0.45655  -0.44698  -0.42778  -0.38522
 Alpha  occ. eigenvalues --   -0.37687  -0.36992  -0.36606  -0.35785  -0.35725
 Alpha  occ. eigenvalues --   -0.35572
 Alpha virt. eigenvalues --    0.07054   0.07510   0.07580   0.12642   0.15352
 Alpha virt. eigenvalues --    0.16921   0.17039   0.17577   0.19940   0.21166
 Alpha virt. eigenvalues --    0.22297   0.23619   0.24985   0.26625   0.27737

 Mulliken charges:
               1
     1  O   -0.485335
     2  C    0.063511
     3  C   -0.284038
     4  C   -0.191932
     5  Br  -0.122136
     6  C   -0.193360
     7  Br  -0.116354
     8  C   -0.187360
     9  Br  -0.116167
    10  H    0.330397
    11  H    0.116915
    12  H    0.114932
    13  H    0.176278
    14  H    0.183842
    15  H    0.174384
    16  H    0.182917
    17  H    0.176175
    18  H    0.177332
 Sum of Mulliken charges =  -0.00000

 Dipole moment (field-independent basis, Debye):
    X=              0.9210    Y=              0.8748    Z=              2.0362  Tot=              2.3999
 Evaluate density.
 Using the total density.
 Monte-Carlo method of calculating molar volume:
 based on  0.001 e/bohr**3 density envelope.
 Number of points per bohr**3 =  100 CutOff= 1.00D-04
 Using the SCF density.
 There are      2537 points.  Will hold      2537 in memory.
 LenV=  1047982979 MDV=  1048576000.
 Box volume =16338.560 fraction occupied=0.088
 Integrated density= 6.6832050228804889D+01 error=-8.5167949771195111D+01

 1\1\GINC-C419\SP\RwB97XD\def2SVPP\C5H9Br3O1\PETERCHAO1\02-Apr-2024\0\\
 #T wB97XD//def2svpp Volume=tight Geom=AllCheckpoint Guess=Read\\Monome
 r\\0,1\O,0,-1.1148778344,0.0661318854,-2.7352872937\C,0,-0.6635917208,
 0.896992701,-1.6959049747\C,0,-0.1949320862,0.0092966922,-0.5293107486
 \C,0,-1.3282460864,-0.9425316202,-0.1031019665\Br,0,-2.9440258854,-0.0
 633774957,0.5413653724\C,0,0.968328066,-0.8459755522,-1.0632946775\Br,
 0,1.7484726888,-2.0797763108,0.2271706892\C,0,0.2153628836,0.867766942
 4,0.6732081916\Br,0,1.6950629638,2.0914891827,0.3424484553\H,0,-1.4907

 Normal termination of Gaussian 16 at Tue Apr  2 14:03:06 2024.
