 Gaussian 16, Revision B.01,
 Gaussian 16:  ES64L-G16RevB.01 20-Dec-2017

 --------------------------------------------------------------
 #T wB97XD//def2svpp Volume=tight Geom=AllCheckpoint Guess=Read
 --------------------------------------------------------------
 Structure from the checkpoint file:  "monomer.chk"
 -------
 Monomer
 -------
 Charge =  0 Multiplicity = 1

                         Standard orientation:
 ---------------------------------------------------------------------
 Center     Atomic      Atomic             Coordinates (Angstroms)
 Number     Number       Type             X           Y           Z
 ---------------------------------------------------------------------
      1          6           0       -1.773953   -0.627528    0.027190
      2          6           0       -0.438818    0.016866   -0.337845
      3          7           0       -0.281497    1.397782    0.120545
      4          6           0        0.762023   -0.766481    0.203816
      5          8           0        1.952087   -0.111197   -0.105855
      6          1           0       -1.903263   -0.665579    1.124867
      7          1           0       -1.840271   -1.661000   -0.356557
      8          1           0       -2.617521   -0.053898   -0.394980
      9          1           0       -0.334279    0.042145   -1.437002
     10          1           0       -0.841365    2.048706   -0.427408
     11          1           0       -0.564139    1.492150    1.097907
     12          1           0        0.791836   -1.777217   -0.238802
     13          1           0        0.634532   -0.894298    1.304849
     14          1           0        1.732752    0.836950   -0.028819
 ---------------------------------------------------------------------

 SCF Done:  E(RwB97XD) =  -249.418201654     A.U. after    1 cycles

 The electronic state is 1-A.
 Alpha  occ. eigenvalues --  -19.22276 -14.43329 -10.32556 -10.32455 -10.29097
 Alpha  occ. eigenvalues --   -1.09632  -0.98642  -0.84230  -0.75878  -0.68297
 Alpha  occ. eigenvalues --   -0.61563  -0.55879  -0.54465  -0.52585  -0.49846
 Alpha  occ. eigenvalues --   -0.48231  -0.46906  -0.43087  -0.39245  -0.34392
 Alpha  occ. eigenvalues --   -0.32959
 Alpha virt. eigenvalues --    0.12276   0.16190   0.16734   0.18646   0.20913
 Alpha virt. eigenvalues --    0.22150   0.22532   0.23245   0.25265   0.30644
 Alpha virt. eigenvalues --    0.30886   0.32040   0.33771   0.52378   0.53878

 Mulliken charges:
               1
     1  C   -0.298661
     2  C   -0.137103
     3  N   -0.534342
     4  C    0.071010
     5  O   -0.497177
     6  H    0.109189
     7  H    0.122947
     8  H    0.117240
     9  H    0.104045
    10  H    0.232655
    11  H    0.225087
    12  H    0.099921
    13  H    0.066144
    14  H    0.319044
 Sum of Mulliken charges =  -0.00000

 Dipole moment (field-independent basis, Debye):
    X=             -3.1822    Y=              0.9385    Z=              0.3796  Tot=              3.3394
 Evaluate density.
 Using the total density.
 Monte-Carlo method of calculating molar volume:
 based on  0.001 e/bohr**3 density envelope.
 Number of points per bohr**3 =  100 CutOff= 1.00D-04
 Using the SCF density.
 There are      1611 points.  Will hold      1611 in memory.
 LenV=  1048411446 MDV=  1048576000.
 Box volume = 4186.422 fraction occupied=0.169
 Integrated density= 2.6085498700287765D+01 error=-1.5914501299712235D+01

 Normal termination of Gaussian 16 at Tue Apr  2 13:45:42 2024.
