 Gaussian 16, Revision B.01,
 Gaussian 16:  ES64L-G16RevB.01 20-Dec-2017

 ----------------------------------------------------------------------
 #T wB97XD/def2svpp opt=tight freq int(grid=ultrafine) scf=(verytight,q
 c)
 ----------------------------------------------------------------------
 --------------
 Comment gs min
 --------------
 Symbolic Z-matrix:
 Charge =  0 Multiplicity = 1

 SCF Done:  E(RwB97XD) =  -527.552682855     a.u. after    9 cycles
 SCF Done:  E(RwB97XD) =  -527.560516008     a.u. after   15 cycles
 SCF Done:  E(RwB97XD) =  -527.534972089     a.u. after   27 cycles
 SCF Done:  E(RwB97XD) =  -527.562986551     a.u. after   13 cycles
 SCF Done:  E(RwB97XD) =  -527.563141778     a.u. after    7 cycles
 SCF Done:  E(RwB97XD) =  -527.560783751     a.u. after   13 cycles
 SCF Done:  E(RwB97XD) =  -527.563184351     a.u. after    5 cycles
 SCF Done:  E(RwB97XD) =  -527.563188117     a.u. after    3 cycles
 SCF Done:  E(RwB97XD) =  -527.563188308     a.u. after    3 cycles
 SCF Done:  E(RwB97XD) =  -527.563188354     a.u. after    2 cycles
 SCF Done:  E(RwB97XD) =  -527.563188365     a.u. after    2 cycles
 SCF Done:  E(RwB97XD) =  -527.563188366     a.u. after    2 cycles
 Optimization completed.
    -- Stationary point found.
 Normal termination of Gaussian 16 at Mon Jun 26 17:32:29 2023.

 ---------------------------------------------------------------------
 #T Geom=AllCheck Guess=TCheck SCRF=Check GenChk RwB97XD/def2SVPP Freq
 ---------------------------------------------------------------------
 Structure from the checkpoint file:  "42.chk"
 --------------
 Comment gs min
 --------------
 Charge =  0 Multiplicity = 1

                         Standard orientation:
 ---------------------------------------------------------------------
 Center     Atomic      Atomic             Coordinates (Angstroms)
 Number     Number       Type             X           Y           Z
 ---------------------------------------------------------------------
      1          6           0       -0.140541    1.355597    1.269035
      2          6           0        0.000006    0.540800    0.000003
      3          6           0        0.140592    1.355603   -1.269018
      4          7           0        1.189332   -0.403958    0.180810
      5          8           0        2.173561   -0.193156   -0.480981
      6          8           0        1.056472   -1.258830    1.021561
      7          7           0       -1.189350   -0.403915   -0.180816
      8          8           0       -2.173547   -0.193145    0.481033
      9          8           0       -1.056536   -1.258734   -1.021630
     10          1           0        0.775813    1.952039    1.410250
     11          1           0       -0.289129    0.699719    2.138866
     12          1           0       -1.000318    2.035252    1.180826
     13          1           0        1.000393    2.035225   -1.180794
     14          1           0       -0.775739    1.952078   -1.410235
     15          1           0        0.289159    0.699726   -2.138854
 ---------------------------------------------------------------------

 SCF Done:  E(RwB97XD) =  -527.563188366     a.u. after    1 cycles

 The electronic state is 1-A.
 Alpha  occ. eigenvalues --  -19.31694 -19.31693 -19.31404 -19.31399 -14.70826
 Alpha  occ. eigenvalues --  -14.70824 -10.43561 -10.33455 -10.33452  -1.37341
 Alpha  occ. eigenvalues --   -1.35862  -1.19101  -1.18894  -1.00292  -0.83905
 Alpha  occ. eigenvalues --   -0.83230  -0.80962  -0.68476  -0.68181  -0.66890
 Alpha  occ. eigenvalues --   -0.64708  -0.62704  -0.62348  -0.60694  -0.54822
 Alpha  occ. eigenvalues --   -0.53476  -0.53112  -0.52271  -0.48884  -0.42766
 Alpha  occ. eigenvalues --   -0.42449  -0.41928  -0.41291  -0.40909  -0.40294
 Alpha virt. eigenvalues --   -0.01636  -0.01298   0.12230   0.13604   0.15854
 Alpha virt. eigenvalues --    0.17586   0.19826   0.21142   0.22181   0.23304
 Alpha virt. eigenvalues --    0.24559   0.26665   0.35246   0.35784   0.43140

 Mulliken charges:
               1
     1  C   -0.237044
     2  C   -0.088965
     3  C   -0.237048
     4  N    0.239532
     5  O   -0.216211
     6  O   -0.221570
     7  N    0.239532
     8  O   -0.216209
     9  O   -0.221571
    10  H    0.151804
    11  H    0.168369
    12  H    0.159603
    13  H    0.159604
    14  H    0.151803
    15  H    0.168371
 Sum of Mulliken charges =  -0.00000

 Dipole moment (field-independent basis, Debye):
    X=              0.0001    Y=              4.3522    Z=              0.0000  Tot=              4.3522
  Exact polarizability:  57.853   0.000  54.293  -7.954  -0.000  56.702
 Approx polarizability:  70.852   0.001  65.169 -18.605   0.000  73.352
   1 Symmetry operations used in ECPInt.
 ECPInt:  NShTT=    2211 NPrTT=    8913 LenC2=    2192 LenP2D=    6939.
 LDataN:  DoStor=T MaxTD1= 6 Len=  172
 Calling FoFJK, ICntrl=    100127 FMM=F ISym2X=0 I1Cent= 0 IOpClX= 0 NMat=1 NMatS=1 NMatT=0.
 Full mass-weighted force constant matrix:
 Low frequencies ---   -5.9126   -0.0012   -0.0006    0.0009    3.4551    3.6396
 Low frequencies ---   48.2171   77.4278  201.8861
 Diagonal vibrational polarizability:

                      1                      2                      3
                      A                      A                      A
 Frequencies --     48.2170                77.4277               201.8859
 Red. masses --      9.7951                13.8029                 7.1727
 Frc consts  --      0.0134                 0.0488                 0.1722
 IR Inten    --      0.7812                 0.2163                 5.5546

                      4                      5                      6
                      A                      A                      A
 Frequencies --    250.7796               274.4715               277.9076
 Red. masses --      1.1153                 1.2009                 2.6865
 Frc consts  --      0.0413                 0.0533                 0.1222
 IR Inten    --      0.1580                 0.8399                 0.0688

                      7                      8                      9
                      A                      A                      A
 Frequencies --    308.6021               352.9912               362.8348
 Red. masses --      3.1413                 3.1080                 2.6423
 Frc consts  --      0.1763                 0.2282                 0.2050
 IR Inten    --      5.5627                 1.1889                 1.9806

                     10                     11                     12
                      A                      A                      A
 Frequencies --    453.7091               502.3950               584.4631
 Red. masses --     11.2066                 6.8814                 4.9199
 Frc consts  --      1.3592                 1.0233                 0.9902
 IR Inten    --      1.9513                12.4721                11.4114

                     13                     14                     15
                      A                      A                      A
 Frequencies --    703.4153               764.6244               788.7810
 Red. masses --      3.8022                 4.4961                 6.7205
 Frc consts  --      1.1084                 1.5488                 2.4636
 IR Inten    --     16.8998                 0.2737                 0.0630

                     16                     17                     18
                      A                      A                      A
 Frequencies --    899.5899               913.5262               974.3672
 Red. masses --      9.3824                 6.0548                 1.3589
 Frc consts  --      4.4736                 2.9771                 0.7601
 IR Inten    --     21.6122                55.0952                 1.3298

                     19                     20                     21
                      A                      A                      A
 Frequencies --    990.3251              1034.8034              1215.6832
 Red. masses --      2.2931                 1.3293                 2.3021
 Frc consts  --      1.3251                 0.8387                 2.0046
 IR Inten    --      1.9291                 0.1713                17.4756

                     22                     23                     24
                      A                      A                      A
 Frequencies --   1237.4564              1300.1514              1418.1075
 Red. masses --      2.4924                 3.2893                 1.3998
 Frc consts  --      2.2487                 3.2760                 1.6585
 IR Inten    --     14.8395                 7.5378                33.7983

                     25                     26                     27
                      A                      A                      A
 Frequencies --   1425.2662              1469.0183              1470.1388
 Red. masses --      1.2987                 1.3314                 1.0434
 Frc consts  --      1.5543                 1.6929                 1.3286
 IR Inten    --      2.7218                14.6814                 4.2964

                     28                     29                     30
                      A                      A                      A
 Frequencies --   1477.0525              1489.4984              1504.7767
 Red. masses --      2.1461                 1.0605                 1.3332
 Frc consts  --      2.7586                 1.3862                 1.7787
 IR Inten    --     46.3026                 8.9472                86.6949

                     31                     32                     33
                      A                      A                      A
 Frequencies --   1525.6959              1786.1645              1798.3893
 Red. masses --      9.2303                14.3881                13.8830
 Frc consts  --     12.6591                27.0455                26.4545
 IR Inten    --     79.4201               437.3483               125.8925

                     34                     35                     36
                      A                      A                      A
 Frequencies --   3067.4490              3070.0771              3169.6609
 Red. masses --      1.0375                 1.0381                 1.1052
 Frc consts  --      5.7519                 5.7649                 6.5422
 IR Inten    --      1.3344                 3.2244                 0.2414

                     37                     38                     39
                      A                      A                      A
 Frequencies --   3173.2606              3193.4161              3194.0170
 Red. masses --      1.1042                 1.1075                 1.1070
 Frc consts  --      6.5511                 6.6544                 6.6538
 IR Inten    --      1.2810                 0.0038                 0.0268

                           ! Non-Optimized Parameters !
 Normal termination of Gaussian 16 at Mon Jun 26 17:33:56 2023.
