 Gaussian 16, Revision B.01,
 Gaussian 16:  ES64L-G16RevB.01 20-Dec-2017

 ----------------------------------------------------------------------
 #T wB97XD/def2svpp opt=tight freq int(grid=ultrafine) scf=(verytight,q
 c)
 ----------------------------------------------------------------------
 --------------
 Comment gs min
 --------------
 Symbolic Z-matrix:
 Charge =  0 Multiplicity = 1

 SCF Done:  E(RwB97XD) =  -347.795865419     a.u. after    8 cycles
 SCF Done:  E(RwB97XD) =  -347.798416917     a.u. after    7 cycles
 SCF Done:  E(RwB97XD) =  -347.798765606     a.u. after    8 cycles
 SCF Done:  E(RwB97XD) =  -347.798816298     a.u. after    5 cycles
 SCF Done:  E(RwB97XD) =  -347.798828782     a.u. after    3 cycles
 SCF Done:  E(RwB97XD) =  -347.798831723     a.u. after    3 cycles
 SCF Done:  E(RwB97XD) =  -347.798833458     a.u. after    3 cycles
 SCF Done:  E(RwB97XD) =  -347.798834360     a.u. after    3 cycles
 SCF Done:  E(RwB97XD) =  -347.798834433     a.u. after    2 cycles
 SCF Done:  E(RwB97XD) =  -347.798834437     a.u. after    2 cycles
 SCF Done:  E(RwB97XD) =  -347.798834437     a.u. after    2 cycles
 SCF Done:  E(RwB97XD) =  -347.798834437     a.u. after    2 cycles
 SCF Done:  E(RwB97XD) =  -347.798834437     a.u. after    2 cycles
 SCF Done:  E(RwB97XD) =  -347.798834437     a.u. after    2 cycles
 SCF Done:  E(RwB97XD) =  -347.798834437     a.u. after    2 cycles
 Optimization completed.
    -- Stationary point found.

 1\1\GINC-C241\FOpt\RwB97XD\def2SVPP\C5H12O2\PETERCHAO1\04-Aug-2022\0\\
 #T wB97XD/def2svpp opt=tight freq int(grid=ultrafine) scf=(verytight,q
 c)\\Comment gs min\\0,1\C,0.95629769,0.0468323406,-0.0338615495\C,2.48
 64086645,0.0232991238,-0.0945805115\C,2.9763440724,-1.4182550084,-0.28
 49759272\C,2.9772035928,0.903206385,-1.2602529404\O,2.5686188166,0.449
 7710452,-2.5280383386\C,3.0440762871,0.5995061388,1.21937353\O,4.44717
 41517,0.5875182518,1.3113941713\H,0.5322496014,-0.2499674273,-1.007439
 2754\H,0.5837995501,1.0607947545,0.199895448\H,0.5727132192,-0.6431978

 Normal termination of Gaussian 16 at Thu Aug  4 16:18:42 2022.

 ---------------------------------------------------------------------
 #T Geom=AllCheck Guess=TCheck SCRF=Check GenChk RwB97XD/def2SVPP Freq
 ---------------------------------------------------------------------
 Structure from the checkpoint file:  "/scratch/user/peterchao1/peterchao1/6097792_1659647566000000875664383/Gau-200916.chk"
 --------------
 Comment gs min
 --------------
 Charge =  0 Multiplicity = 1

                         Standard orientation:
 ---------------------------------------------------------------------
 Center     Atomic      Atomic             Coordinates (Angstroms)
 Number     Number       Type             X           Y           Z
 ---------------------------------------------------------------------
      1          6           0       -0.610715    1.679973   -0.448888
      2          6           0       -0.003205    0.351241    0.010333
      3          6           0       -0.005493    0.281527    1.543141
      4          6           0       -0.814319   -0.823088   -0.570144
      5          8           0       -2.146873   -0.872595   -0.121065
      6          6           0        1.439192    0.255939   -0.518714
      7          8           0        2.129604   -0.903072   -0.122077
      8          1           0       -1.680274    1.721045   -0.184095
      9          1           0       -0.531256    1.794989   -1.545235
     10          1           0       -0.101035    2.540338    0.021308
     11          1           0       -1.019694    0.448476    1.945651
     12          1           0        0.646309    1.061465    1.978324
     13          1           0        0.343259   -0.702498    1.908618
     14          1           0       -0.278588   -1.769258   -0.359667
     15          1           0       -0.867302   -0.715239   -1.667455
     16          1           0       -2.161514   -1.216891    0.780684
     17          1           0        1.992550    1.172701   -0.223024
     18          1           0        1.422020    0.233237   -1.622239
     19          1           0        2.340924   -0.836580    0.817903
 ---------------------------------------------------------------------

 SCF Done:  E(RwB97XD) =  -347.798834437     a.u. after    1 cycles

 The electronic state is 1-A.
 Alpha  occ. eigenvalues --  -19.25312 -19.24752 -10.33744 -10.32925 -10.30475
 Alpha  occ. eigenvalues --  -10.29371 -10.28084  -1.11715  -1.10967  -0.90912
 Alpha  occ. eigenvalues --   -0.78781  -0.76823  -0.75845  -0.64628  -0.61295
 Alpha  occ. eigenvalues --   -0.58524  -0.55462  -0.54145  -0.52623  -0.50514
 Alpha  occ. eigenvalues --   -0.47180  -0.46636  -0.45764  -0.44521  -0.42668
 Alpha  occ. eigenvalues --   -0.40865  -0.39785  -0.36403  -0.33922
 Alpha virt. eigenvalues --    0.11725   0.14386   0.15273   0.17563   0.18933
 Alpha virt. eigenvalues --    0.19586   0.20653   0.22526   0.22931   0.23925
 Alpha virt. eigenvalues --    0.25458   0.26249   0.27674   0.29892   0.30976

 Mulliken charges:
               1
     1  C   -0.278708
     2  C   -0.271115
     3  C   -0.348929
     4  C    0.056823
     5  O   -0.484936
     6  C    0.055448
     7  O   -0.484638
     8  H    0.134743
     9  H    0.114259
    10  H    0.112309
    11  H    0.125180
    12  H    0.120458
    13  H    0.111984
    14  H    0.106416
    15  H    0.098004
    16  H    0.317863
    17  H    0.092308
    18  H    0.103261
    19  H    0.319265
 Sum of Mulliken charges =  -0.00000

 Dipole moment (field-independent basis, Debye):
    X=              0.7935    Y=              0.6790    Z=              2.1240  Tot=              2.3669
  Exact polarizability:  58.944  -0.129  58.548   0.054  -1.467  60.444
 Approx polarizability:  61.334  -0.635  60.968   0.200  -1.299  64.241
   1 Symmetry operations used in ECPInt.
 ECPInt:  NShTT=    2211 NPrTT=    8905 LenC2=    2201 LenP2D=    7260.
 LDataN:  DoStor=T MaxTD1= 6 Len=  172
 Calling FoFJK, ICntrl=    100127 FMM=F ISym2X=0 I1Cent= 0 IOpClX= 0 NMat=1 NMatS=1 NMatT=0.
 Full mass-weighted force constant matrix:
 Low frequencies ---   -0.0007   -0.0005    0.0004    4.1606    6.5957    9.2086
 Low frequencies ---  114.4136  130.6753  225.5030
 Diagonal vibrational polarizability:

                      1                      2                      3
                      A                      A                      A
 Frequencies --    114.4124               130.6745               225.5025
 Red. masses --      2.4536                 2.9328                 2.4754
 Frc consts  --      0.0189                 0.0295                 0.0742
 IR Inten    --      5.8277                 1.8013                11.0956

                      4                      5                      6
                      A                      A                      A
 Frequencies --    239.0810               264.9419               279.7804
 Red. masses --      1.2464                 1.0560                 3.0990
 Frc consts  --      0.0420                 0.0437                 0.1429
 IR Inten    --     18.7223                12.9255                13.1336

                      7                      8                      9
                      A                      A                      A
 Frequencies --    322.1024               349.6229               360.9618
 Red. masses --      1.1437                 1.4373                 2.0949
 Frc consts  --      0.0699                 0.1035                 0.1608
 IR Inten    --    173.5331                35.5902                 6.4937

                     10                     11                     12
                      A                      A                      A
 Frequencies --    369.6673               422.4330               481.8292
 Red. masses --      1.7226                 1.8630                 3.1583
 Frc consts  --      0.1387                 0.1959                 0.4320
 IR Inten    --     28.2413                12.4434                 3.6356

                     13                     14                     15
                      A                      A                      A
 Frequencies --    603.9087               765.4542               910.9437
 Red. masses --      3.3525                 3.4273                 1.8510
 Frc consts  --      0.7204                 1.1831                 0.9050
 IR Inten    --     13.6649                 3.1594                15.7855

                     16                     17                     18
                      A                      A                      A
 Frequencies --    931.8664               940.4487               966.3980
 Red. masses --      1.5646                 1.5217                 1.3184
 Frc consts  --      0.8005                 0.7930                 0.7254
 IR Inten    --     19.3410                 0.1339                 1.7540

                     19                     20                     21
                      A                      A                      A
 Frequencies --   1020.7264              1042.1300              1135.8806
 Red. masses --      1.5213                 1.3868                 3.8712
 Frc consts  --      0.9338                 0.8874                 2.9428
 IR Inten    --      6.3834                15.6006                70.5766

                     22                     23                     24
                      A                      A                      A
 Frequencies --   1140.6956              1164.4541              1203.5816
 Red. masses --      3.9638                 1.5311                 1.2358
 Frc consts  --      3.0388                 1.2232                 1.0547
 IR Inten    --    128.4424                17.4461                40.4228

                     25                     26                     27
                      A                      A                      A
 Frequencies --   1266.5929              1295.5350              1330.5750
 Red. masses --      2.4340                 2.0624                 1.9418
 Frc consts  --      2.3006                 2.0395                 2.0255
 IR Inten    --      1.4812                 2.1761                 7.1795

                     28                     29                     30
                      A                      A                      A
 Frequencies --   1396.2048              1400.9389              1411.7017
 Red. masses --      1.3109                 1.2660                 1.3046
 Frc consts  --      1.5056                 1.4639                 1.5318
 IR Inten    --     11.4915                 5.2876                16.4862

                     31                     32                     33
                      A                      A                      A
 Frequencies --   1419.1091              1429.2317              1449.4204
 Red. masses --      1.2236                 1.3351                 1.2889
 Frc consts  --      1.4518                 1.6068                 1.5954
 IR Inten    --     36.6896                18.2414                16.8229

                     34                     35                     36
                      A                      A                      A
 Frequencies --   1481.3947              1494.5824              1499.2887
 Red. masses --      1.0597                 1.0531                 1.0813
 Frc consts  --      1.3702                 1.3860                 1.4320
 IR Inten    --      2.4991                 4.3332                 8.6036

                     37                     38                     39
                      A                      A                      A
 Frequencies --   1501.3905              1514.9070              1520.7557
 Red. masses --      1.0818                 1.0759                 1.0705
 Frc consts  --      1.4368                 1.4548                 1.4586
 IR Inten    --      1.7893                 7.0078                17.0365

                     40                     41                     42
                      A                      A                      A
 Frequencies --   2990.4146              3017.4184              3025.6120
 Red. masses --      1.0702                 1.0384                 1.0434
 Frc consts  --      5.6388                 5.5705                 5.6277
 IR Inten    --     55.8711                27.2322                41.5314

                     43                     44                     45
                      A                      A                      A
 Frequencies --   3029.2279              3094.6178              3100.7614
 Red. masses --      1.0583                 1.0993                 1.1050
 Frc consts  --      5.7218                 6.2030                 6.2594
 IR Inten    --     15.8736                11.8982                24.2809

                     46                     47                     48
                      A                      A                      A
 Frequencies --   3103.7616              3111.6540              3118.4646
 Red. masses --      1.1045                 1.1042                 1.1029
 Frc consts  --      6.2688                 6.2989                 6.3194
 IR Inten    --     31.4451                36.5516                15.3946

                     49                     50                     51
                      A                      A                      A
 Frequencies --   3137.3038              3785.8836              3790.6763
 Red. masses --      1.1036                 1.0660                 1.0662
 Frc consts  --      6.4000                 9.0023                 9.0267
 IR Inten    --     11.2360                27.9573                31.4356

                           ! Non-Optimized Parameters !

 1\1\GINC-C241\Freq\RwB97XD\def2SVPP\C5H12O2\PETERCHAO1\04-Aug-2022\0\\
 #T Geom=AllCheck Guess=TCheck SCRF=Check GenChk RwB97XD/def2SVPP Freq\
 \Comment gs min\\0,1\C,0.95629769,0.0468323406,-0.0338615495\C,2.48640
 86645,0.0232991238,-0.0945805115\C,2.9763440724,-1.4182550084,-0.28497
 59272\C,2.9772035928,0.903206385,-1.2602529404\O,2.5686188166,0.449771
 0452,-2.5280383386\C,3.0440762871,0.5995061388,1.21937353\O,4.44717415
 17,0.5875182518,1.3113941713\H,0.5322496014,-0.2499674273,-1.007439275
 4\H,0.5837995501,1.0607947545,0.199895448\H,0.5727132192,-0.6431978212

 Normal termination of Gaussian 16 at Thu Aug  4 16:20:11 2022.
