 Gaussian 16, Revision B.01,
 Gaussian 16:  ES64L-G16RevB.01 20-Dec-2017

 ----------------------------------------------------------------------
 #T wB97XD/def2svpp opt=tight freq int(grid=ultrafine) scf=(verytight,q
 c) Volume=tight
 ----------------------------------------------------------------------
 -----
 Dimer
 -----
 Symbolic Z-matrix:
 Charge =  0 Multiplicity = 1

 SCF Done:  E(RwB97XD) =  -538.555246380     a.u. after    7 cycles
 SCF Done:  E(RwB97XD) =  -538.556625393     a.u. after    8 cycles
 SCF Done:  E(RwB97XD) =  -538.555580313     a.u. after    9 cycles
 SCF Done:  E(RwB97XD) =  -538.557179407     a.u. after    6 cycles
 SCF Done:  E(RwB97XD) =  -538.557135400     a.u. after    8 cycles
 SCF Done:  E(RwB97XD) =  -538.557270503     a.u. after    6 cycles
 SCF Done:  E(RwB97XD) =  -538.557306776     a.u. after    5 cycles
 SCF Done:  E(RwB97XD) =  -538.557320128     a.u. after    5 cycles
 SCF Done:  E(RwB97XD) =  -538.557335173     a.u. after    4 cycles
 SCF Done:  E(RwB97XD) =  -538.557338016     a.u. after    2 cycles
 SCF Done:  E(RwB97XD) =  -538.557339215     a.u. after    2 cycles
 SCF Done:  E(RwB97XD) =  -538.557339457     a.u. after    2 cycles
 SCF Done:  E(RwB97XD) =  -538.557339556     a.u. after    2 cycles
 SCF Done:  E(RwB97XD) =  -538.557339579     a.u. after    2 cycles
 SCF Done:  E(RwB97XD) =  -538.557339579     a.u. after    2 cycles
 SCF Done:  E(RwB97XD) =  -538.557339583     a.u. after    2 cycles
 SCF Done:  E(RwB97XD) =  -538.557339579     a.u. after    2 cycles
 SCF Done:  E(RwB97XD) =  -538.557339585     a.u. after    2 cycles
 SCF Done:  E(RwB97XD) =  -538.557339579     a.u. after    2 cycles
 Optimization completed.
    -- Stationary point found.

 1\1\GINC-C245\FOpt\RwB97XD\def2SVPP\C6H16O4\PETERCHAO1\05-Feb-2023\0\\
 #T wB97XD/def2svpp opt=tight freq int(grid=ultrafine) scf=(verytight,q
 c) Volume=tight\\Dimer\\0,1\O,-1.0322264148,-1.3465108488,-0.769781585
 7\C,-2.2224646366,-1.312694557,-0.0019202493\C,-2.307264805,-0.0580096
 061,0.8647479744\C,-2.288416346,1.2298419586,0.037005742\O,-1.15663144
 47,1.3148972243,-0.8045136362\H,-0.9406135193,-0.4425167891,-1.1496209
 164\H,-2.2302642109,-2.2208580254,0.6224451104\H,-3.10270014,-1.365402
 4383,-0.6740510514\H,-1.4663490157,-0.0520160656,1.5829226915\H,-3.235

 Normal termination of Gaussian 16 at Sun Feb  5 15:40:02 2023.

 ---------------------------------------------------------------------
 #T Geom=AllCheck Guess=TCheck SCRF=Check GenChk RwB97XD/def2SVPP Freq
 ---------------------------------------------------------------------
 Structure from the checkpoint file:  "9.chk"
 -----
 Dimer
 -----
 Charge =  0 Multiplicity = 1

                         Standard orientation:
 ---------------------------------------------------------------------
 Center     Atomic      Atomic             Coordinates (Angstroms)
 Number     Number       Type             X           Y           Z
 ---------------------------------------------------------------------
      1          8           0       -1.024163   -1.337408   -0.795860
      2          6           0       -2.233794   -1.291887   -0.059556
      3          6           0       -2.329600   -0.035787    0.803910
      4          6           0       -2.276976    1.251184   -0.023742
      5          8           0       -1.122730    1.325017   -0.835278
      6          1           0       -0.914158   -0.434605   -1.173646
      7          1           0       -2.266482   -2.199449    0.564876
      8          1           0       -3.096524   -1.336905   -0.754556
      9          1           0       -1.507822   -0.037078    1.543930
     10          1           0       -3.273386   -0.058942    1.378537
     11          1           0       -2.345007    2.133441    0.641329
     12          1           0       -3.143665    1.288870   -0.706847
     13          1           0       -0.336985    1.467032   -0.250068
     14          8           0        1.122736   -1.325017    0.835284
     15          6           0        2.276981   -1.251183    0.023746
     16          6           0        2.329601    0.035786   -0.803910
     17          6           0        2.233790    1.291888    0.059553
     18          8           0        1.024156    1.337406    0.795852
     19          1           0        0.336992   -1.467031    0.250076
     20          1           0        2.345013   -2.133442   -0.641323
     21          1           0        3.143671   -1.288867    0.706850
     22          1           0        1.507823    0.037072   -1.543930
     23          1           0        3.273388    0.058943   -1.378536
     24          1           0        2.266475    2.199449   -0.564882
     25          1           0        3.096516    1.336912    0.754555
     26          1           0        0.914158    0.434607    1.173650
 ---------------------------------------------------------------------

 SCF Done:  E(RwB97XD) =  -538.557339579     a.u. after    1 cycles

 The electronic state is 1-A.
 Alpha  occ. eigenvalues --  -19.25778 -19.25777 -19.24695 -19.24695 -10.34399
 Alpha  occ. eigenvalues --  -10.34399 -10.34141 -10.34141 -10.29702 -10.29701
 Alpha  occ. eigenvalues --   -1.13464  -1.12078  -1.10705  -1.09315  -0.86869
 Alpha  occ. eigenvalues --   -0.86826  -0.76546  -0.76126  -0.70438  -0.69159
 Alpha  occ. eigenvalues --   -0.62580  -0.61358  -0.59893  -0.57637  -0.56325
 Alpha  occ. eigenvalues --   -0.54827  -0.53124  -0.52756  -0.52158  -0.50720
 Alpha  occ. eigenvalues --   -0.49155  -0.48342  -0.47112  -0.45860  -0.43691
 Alpha  occ. eigenvalues --   -0.42982  -0.42359  -0.39707  -0.36924  -0.36015
 Alpha  occ. eigenvalues --   -0.35170  -0.34857
 Alpha virt. eigenvalues --    0.13331   0.14018   0.16016   0.16867   0.18051
 Alpha virt. eigenvalues --    0.19081   0.19826   0.20134   0.20641   0.21094
 Alpha virt. eigenvalues --    0.22130   0.22570   0.23044   0.23073   0.26853

 Mulliken charges:
               1
     1  O   -0.544059
     2  C    0.025457
     3  C   -0.315582
     4  C    0.009812
     5  O   -0.549096
     6  H    0.345685
     7  H    0.120817
     8  H    0.101681
     9  H    0.129378
    10  H    0.117279
    11  H    0.114727
    12  H    0.105379
    13  H    0.338521
    14  O   -0.549096
    15  C    0.009812
    16  C   -0.315581
    17  C    0.025456
    18  O   -0.544059
    19  H    0.338520
    20  H    0.114728
    21  H    0.105379
    22  H    0.129379
    23  H    0.117279
    24  H    0.120818
    25  H    0.101682
    26  H    0.345685
 Sum of Mulliken charges =   0.00000

 Dipole moment (field-independent basis, Debye):
    X=              0.0001    Y=              0.0000    Z=              0.0000  Tot=              0.0001
  Exact polarizability:  92.190  -0.181  78.598  -0.817   0.346  69.274
 Approx polarizability:  87.153   0.146  78.847  -0.311  -0.500  78.549
   1 Symmetry operations used in ECPInt.
 ECPInt:  NShTT=    4278 NPrTT=   17198 LenC2=    4240 LenP2D=   12957.
 LDataN:  DoStor=T MaxTD1= 6 Len=  172
 Calling FoFJK, ICntrl=    100127 FMM=F ISym2X=0 I1Cent= 0 IOpClX= 0 NMat=1 NMatS=1 NMatT=0.
 Full mass-weighted force constant matrix:
 Low frequencies ---  -10.0682   -5.0400   -0.0013   -0.0011    0.0005    7.4590
 Low frequencies ---   53.1385   70.0189   85.1569
 Diagonal vibrational polarizability:

                      1                      2                      3
                      A                      A                      A
 Frequencies --     53.1385                69.9856                85.1569
 Red. masses --      3.8275                 5.5389                 3.1850
 Frc consts  --      0.0064                 0.0160                 0.0136
 IR Inten    --      2.4878                 0.0000                 3.8599

                      4                      5                      6
                      A                      A                      A
 Frequencies --    122.3727               135.8140               158.7195
 Red. masses --      4.2700                 2.5875                 2.6114
 Frc consts  --      0.0377                 0.0281                 0.0388
 IR Inten    --      0.0000                11.0489                 0.0000

                      7                      8                      9
                      A                      A                      A
 Frequencies --    218.6953               280.1605               289.6851
 Red. masses --      4.1232                 4.4633                 4.9032
 Frc consts  --      0.1162                 0.2064                 0.2424
 IR Inten    --      0.0000                29.9859                28.9402

                     10                     11                     12
                      A                      A                      A
 Frequencies --    296.3701               338.6130               350.0007
 Red. masses --      5.6098                 1.8889                 1.7754
 Frc consts  --      0.2903                 0.1276                 0.1281
 IR Inten    --      0.0000                 5.2131                 0.0000

                     13                     14                     15
                      A                      A                      A
 Frequencies --    399.9329               404.2283               542.8008
 Red. masses --      5.2119                 5.2291                 1.6380
 Frc consts  --      0.4912                 0.5034                 0.2843
 IR Inten    --      0.0000                10.5281                 8.4136

                     16                     17                     18
                      A                      A                      A
 Frequencies --    545.6681               669.8709               799.9363
 Red. masses --      1.7131                 1.0777                 1.1299
 Frc consts  --      0.3005                 0.2849                 0.4260
 IR Inten    --      0.0000                 0.0000               315.0162

                     19                     20                     21
                      A                      A                      A
 Frequencies --    850.4444               851.6495               880.2402
 Red. masses --      2.7594                 2.4927                 1.0718
 Frc consts  --      1.1759                 1.0652                 0.4893
 IR Inten    --      0.0000                32.6604               317.2152

                     22                     23                     24
                      A                      A                      A
 Frequencies --    911.2181               916.8243               931.9252
 Red. masses --      1.2933                 1.3235                 1.9026
 Frc consts  --      0.6327                 0.6555                 0.9736
 IR Inten    --      0.0000                 3.9512                 0.0000

                     25                     26                     27
                      A                      A                      A
 Frequencies --    942.6760               984.6141               988.7574
 Red. masses --      2.1196                 2.0911                 1.9890
 Frc consts  --      1.1098                 1.1944                 1.1457
 IR Inten    --     35.4962                 0.0000                 5.2375

                     28                     29                     30
                      A                      A                      A
 Frequencies --   1044.5354              1125.4916              1129.7989
 Red. masses --      1.2921                 3.1460                 3.4526
 Frc consts  --      0.8306                 2.3480                 2.5966
 IR Inten    --      0.0000                 0.0000                13.0568

                     31                     32                     33
                      A                      A                      A
 Frequencies --   1131.4395              1150.1013              1151.1436
 Red. masses --      1.7841                 1.8110                 3.2892
 Frc consts  --      1.3457                 1.4113                 2.5680
 IR Inten    --     60.0163                 0.0000               336.6289

                     34                     35                     36
                      A                      A                      A
 Frequencies --   1163.9320              1230.9494              1246.4800
 Red. masses --      2.6801                 1.1739                 1.1802
 Frc consts  --      2.1392                 1.0480                 1.0804
 IR Inten    --      0.0000                 0.0000                16.5050

                     37                     38                     39
                      A                      A                      A
 Frequencies --   1265.6418              1268.7856              1309.8375
 Red. masses --      1.2141                 1.2162                 1.1504
 Frc consts  --      1.1458                 1.1536                 1.1629
 IR Inten    --      0.0000                19.1192                 8.0027

                     40                     41                     42
                      A                      A                      A
 Frequencies --   1315.7273              1387.7921              1389.9851
 Red. masses --      1.1323                 1.3159                 1.3536
 Frc consts  --      1.1549                 1.4932                 1.5408
 IR Inten    --      0.0000                 0.0000                 0.8381

                     43                     44                     45
                      A                      A                      A
 Frequencies --   1415.7838              1416.9132              1431.6324
 Red. masses --      1.3816                 1.4223                 1.3613
 Frc consts  --      1.6317                 1.6824                 1.6438
 IR Inten    --      1.5019                 0.0000                43.3911

                     46                     47                     48
                      A                      A                      A
 Frequencies --   1435.9543              1470.7924              1473.7277
 Red. masses --      1.3655                 1.1155                 1.1057
 Frc consts  --      1.6589                 1.4218                 1.4149
 IR Inten    --      0.0000                 0.0000                43.7767

                     49                     50                     51
                      A                      A                      A
 Frequencies --   1500.7442              1502.8939              1509.7104
 Red. masses --      1.1477                 1.1087                 1.0916
 Frc consts  --      1.5230                 1.4754                 1.4659
 IR Inten    --      7.0711                 0.0000                20.5231

                     52                     53                     54
                      A                      A                      A
 Frequencies --   1516.9555              1519.2330              1527.6333
 Red. masses --      1.0760                 1.1250                 1.1261
 Frc consts  --      1.4588                 1.5299                 1.5483
 IR Inten    --      0.0000                 8.3414                 0.0000

                     55                     56                     57
                      A                      A                      A
 Frequencies --   1534.4292              1566.2308              3013.9763
 Red. masses --      1.1718                 1.1374                 1.0702
 Frc consts  --      1.6256                 1.6439                 5.7278
 IR Inten    --      0.0000               275.5804               169.2778

                     58                     59                     60
                      A                      A                      A
 Frequencies --   3014.5001              3027.7951              3028.8996
 Red. masses --      1.0703                 1.0635                 1.0641
 Frc consts  --      5.7303                 5.7445                 5.7516
 IR Inten    --      0.0003               143.9885                 0.0000

                     61                     62                     63
                      A                      A                      A
 Frequencies --   3046.7756              3046.8019              3092.1338
 Red. masses --      1.0642                 1.0641                 1.1061
 Frc consts  --      5.8206                 5.8202                 6.2313
 IR Inten    --      0.0000                32.1787                 0.0001

                     64                     65                     66
                      A                      A                      A
 Frequencies --   3092.4408              3106.3442              3106.9045
 Red. masses --      1.1058                 1.1039                 1.1034
 Frc consts  --      6.2309                 6.2759                 6.2755
 IR Inten    --     35.8128               115.2251                 0.0000

                     67                     68                     69
                      A                      A                      A
 Frequencies --   3114.8505              3115.1830              3302.6513
 Red. masses --      1.1013                 1.1015                 1.0708
 Frc consts  --      6.2956                 6.2977                 6.8814
 IR Inten    --      0.0004                69.8203                 0.0000

                     70                     71                     72
                      A                      A                      A
 Frequencies --   3366.2399              3464.4369              3472.9404
 Red. masses --      1.0689                 1.0664                 1.0655
 Frc consts  --      7.1364                 7.5409                 7.5719
 IR Inten    --   1745.2289               600.1733                 0.0000

 Optimization completed.
    -- Stationary point found.

 1\1\GINC-C245\Freq\RwB97XD\def2SVPP\C6H16O4\PETERCHAO1\05-Feb-2023\0\\
 #T Geom=AllCheck Guess=TCheck SCRF=Check GenChk RwB97XD/def2SVPP Freq\
 \Dimer\\0,1\O,-1.0322264148,-1.3465108488,-0.7697815857\C,-2.222464636
 6,-1.312694557,-0.0019202493\C,-2.307264805,-0.0580096061,0.8647479744
 \C,-2.288416346,1.2298419586,0.037005742\O,-1.1566314447,1.3148972243,
 -0.8045136362\H,-0.9406135193,-0.4425167891,-1.1496209164\H,-2.2302642
 109,-2.2208580254,0.6224451104\H,-3.10270014,-1.3654024383,-0.67405105
 14\H,-1.4663490157,-0.0520160656,1.5829226915\H,-3.2353687402,-0.09029

 Normal termination of Gaussian 16 at Sun Feb  5 15:43:49 2023.
