 Gaussian 16, Revision B.01,
 Gaussian 16:  ES64L-G16RevB.01 20-Dec-2017

 ----------------------------------------------------------------------
 #T wB97XD/def2svpp opt=tight freq int(grid=ultrafine) scf=(verytight,q
 c)
 ----------------------------------------------------------------------
 --------------
 Comment gs min
 --------------
 Symbolic Z-matrix:
 Charge =  0 Multiplicity = 1

 SCF Done:  E(RwB97XD) =  -236.816082381     a.u. after    6 cycles
 SCF Done:  E(RwB97XD) =  -236.817139378     a.u. after    5 cycles
 SCF Done:  E(RwB97XD) =  -236.817158784     a.u. after    3 cycles
 SCF Done:  E(RwB97XD) =  -236.817160294     a.u. after    2 cycles
 SCF Done:  E(RwB97XD) =  -236.817160494     a.u. after    2 cycles
 SCF Done:  E(RwB97XD) =  -236.817160524     a.u. after    2 cycles
 SCF Done:  E(RwB97XD) =  -236.817160537     a.u. after    2 cycles
 SCF Done:  E(RwB97XD) =  -236.817160541     a.u. after    2 cycles
 SCF Done:  E(RwB97XD) =  -236.817160542     a.u. after    2 cycles
 SCF Done:  E(RwB97XD) =  -236.817160542     a.u. after    2 cycles
 SCF Done:  E(RwB97XD) =  -236.817160542     a.u. after    2 cycles
 SCF Done:  E(RwB97XD) =  -236.817160542     a.u. after    2 cycles
 Optimization completed.
    -- Stationary point found.
 Normal termination of Gaussian 16 at Thu Aug  4 16:16:17 2022.

 ---------------------------------------------------------------------
 #T Geom=AllCheck Guess=TCheck SCRF=Check GenChk RwB97XD/def2SVPP Freq
 ---------------------------------------------------------------------
 Structure from the checkpoint file:  "/scratch/user/peterchao1/peterchao1/6097793_1659647566000000587506233/Gau-200864.chk"
 --------------
 Comment gs min
 --------------
 Charge =  0 Multiplicity = 1

                         Standard orientation:
 ---------------------------------------------------------------------
 Center     Atomic      Atomic             Coordinates (Angstroms)
 Number     Number       Type             X           Y           Z
 ---------------------------------------------------------------------
      1          6           0        2.183381    0.034950   -0.000001
      2          6           0        0.874166    0.822249    0.000014
      3          6           0       -0.435093   -0.000230    0.000000
      4          6           0       -0.524621   -0.882485    1.253928
      5          6           0       -1.613770    0.985107    0.000048
      6          6           0       -0.524650   -0.882396   -1.253988
      7          1           0        3.044427    0.725209    0.000005
      8          1           0        2.279076   -0.607833   -0.891843
      9          1           0        2.279081   -0.607854    0.891826
     10          1           0        0.860139    1.489243   -0.883072
     11          1           0        0.860141    1.489212    0.883123
     12          1           0       -0.429321   -0.277038    2.173768
     13          1           0        0.265231   -1.653436    1.271590
     14          1           0       -1.496888   -1.405858    1.294315
     15          1           0       -1.588540    1.635876    0.892824
     16          1           0       -2.580168    0.449365    0.000038
     17          1           0       -1.588558    1.635940   -0.892681
     18          1           0        0.265225   -1.653322   -1.271743
     19          1           0       -0.429411   -0.276878   -2.173787
     20          1           0       -1.496903   -1.405797   -1.294370
 ---------------------------------------------------------------------

 SCF Done:  E(RwB97XD) =  -236.817160542     a.u. after    1 cycles

 The electronic state is 1-A.
 Alpha  occ. eigenvalues --  -10.30309 -10.28420 -10.27829 -10.27658 -10.27657
 Alpha  occ. eigenvalues --  -10.27625  -0.91656  -0.82534  -0.76932  -0.76931
 Alpha  occ. eigenvalues --   -0.70757  -0.61128  -0.54541  -0.54332  -0.52205
 Alpha  occ. eigenvalues --   -0.50702  -0.48164  -0.46257  -0.45691  -0.44194
 Alpha  occ. eigenvalues --   -0.43792  -0.42228  -0.39501  -0.39433  -0.38736
 Alpha virt. eigenvalues --    0.12616   0.16782   0.17634   0.18003   0.19134
 Alpha virt. eigenvalues --    0.19404   0.20629   0.22523   0.22753   0.24374
 Alpha virt. eigenvalues --    0.25293   0.25722   0.27199   0.28357   0.28801

 Mulliken charges:
               1
     1  C   -0.320826
     2  C   -0.174963
     3  C   -0.249046
     4  C   -0.279095
     5  C   -0.260849
     6  C   -0.279095
     7  H    0.119407
     8  H    0.118307
     9  H    0.118308
    10  H    0.096279
    11  H    0.096279
    12  H    0.110967
    13  H    0.118731
    14  H    0.111630
    15  H    0.110511
    16  H    0.111618
    17  H    0.110511
    18  H    0.118731
    19  H    0.110966
    20  H    0.111630
 Sum of Mulliken charges =   0.00000

 Dipole moment (field-independent basis, Debye):
    X=              0.0507    Y=              0.0067    Z=              0.0000  Tot=              0.0511
  Exact polarizability:  69.194   0.001  63.323   0.000  -0.000  63.240
 Approx polarizability:  67.212   0.336  66.712   0.000   0.000  66.754
   1 Symmetry operations used in ECPInt.
 ECPInt:  NShTT=    2080 NPrTT=    8376 LenC2=    2078 LenP2D=    6965.
 LDataN:  DoStor=T MaxTD1= 6 Len=  172
 Calling FoFJK, ICntrl=    100127 FMM=F ISym2X=0 I1Cent= 0 IOpClX= 0 NMat=1 NMatS=1 NMatT=0.
 Full mass-weighted force constant matrix:
 Low frequencies ---  -14.5627  -10.1300   -9.2554   -0.0002    0.0006    0.0007
 Low frequencies ---   65.6202  207.8276  258.6805
 Diagonal vibrational polarizability:

                      1                      2                      3
                      A                      A                      A
 Frequencies --     65.5818               207.8221               258.6788
 Red. masses --      1.6363                 1.0315                 1.1262
 Frc consts  --      0.0041                 0.0262                 0.0444
 IR Inten    --      0.0078                 0.0070                 0.0052

                      4                      5                      6
                      A                      A                      A
 Frequencies --    263.3691               284.3886               297.6359
 Red. masses --      2.2119                 1.1054                 1.1147
 Frc consts  --      0.0904                 0.0527                 0.0582
 IR Inten    --      0.0587                 0.0562                 0.0000

                      7                      8                      9
                      A                      A                      A
 Frequencies --    346.3069               366.6444               421.9118
 Red. masses --      2.0351                 2.2555                 2.2400
 Frc consts  --      0.1438                 0.1786                 0.2349
 IR Inten    --      0.0109                 0.0216                 0.0217

                     10                     11                     12
                      A                      A                      A
 Frequencies --    433.8714               494.8908               728.7100
 Red. masses --      2.0063                 2.3907                 3.0175
 Frc consts  --      0.2225                 0.3450                 0.9441
 IR Inten    --      0.0310                 0.3953                 0.3556

                     13                     14                     15
                      A                      A                      A
 Frequencies --    794.1263               897.3776               954.6998
 Red. masses --      1.1754                 1.9047                 1.6282
 Frc consts  --      0.4367                 0.9037                 0.8744
 IR Inten    --      2.8415                 0.2586                 1.3317

                     16                     17                     18
                      A                      A                      A
 Frequencies --    956.7079               968.6239              1012.4125
 Red. masses --      1.6323                 1.2122                 1.3096
 Frc consts  --      0.8802                 0.6701                 0.7909
 IR Inten    --      0.4402                 0.0580                 0.6286

                     19                     20                     21
                      A                      A                      A
 Frequencies --   1023.8585              1054.6736              1108.6615
 Red. masses --      1.3224                 1.8660                 1.8548
 Frc consts  --      0.8167                 1.2229                 1.3432
 IR Inten    --      3.3026                 3.3347                 1.8627

                     22                     23                     24
                      A                      A                      A
 Frequencies --   1111.5765              1258.3089              1263.3828
 Red. masses --      1.4231                 2.2949                 1.8577
 Frc consts  --      1.0360                 2.1409                 1.7470
 IR Inten    --      0.4758                 7.6050                 1.2730

                     25                     26                     27
                      A                      A                      A
 Frequencies --   1299.3908              1349.0516              1387.1607
 Red. masses --      2.6765                 1.3519                 1.4156
 Frc consts  --      2.6625                 1.4496                 1.6049
 IR Inten    --      3.8736                 0.6923                 0.6540

                     28                     29                     30
                      A                      A                      A
 Frequencies --   1410.3241              1410.5249              1425.1771
 Red. masses --      1.3325                 1.3232                 1.3268
 Frc consts  --      1.5615                 1.5511                 1.5878
 IR Inten    --     11.7493                10.3619                 3.0329

                     31                     32                     33
                      A                      A                      A
 Frequencies --   1436.5858              1474.2231              1475.8035
 Red. masses --      1.2523                 1.0456                 1.0717
 Frc consts  --      1.5227                 1.3389                 1.3752
 IR Inten    --      6.8491                 0.3529                 0.1808

                     34                     35                     36
                      A                      A                      A
 Frequencies --   1478.7544              1484.0881              1496.7919
 Red. masses --      1.0410                 1.0541                 1.0430
 Frc consts  --      1.3412                 1.3679                 1.3768
 IR Inten    --      0.4093                 0.0274                14.2966

                     37                     38                     39
                      A                      A                      A
 Frequencies --   1500.9018              1505.2743              1508.2866
 Red. masses --      1.0668                 1.0669                 1.0669
 Frc consts  --      1.4159                 1.4243                 1.4300
 IR Inten    --      8.0932                10.0601                 0.5644

                     40                     41                     42
                      A                      A                      A
 Frequencies --   1515.5390              3017.7535              3020.5047
 Red. masses --      1.0719                 1.0408                 1.0545
 Frc consts  --      1.4506                 5.5848                 5.6683
 IR Inten    --     15.4109                11.4536                53.4520

                     43                     44                     45
                      A                      A                      A
 Frequencies --   3021.7588              3027.7381              3037.6118
 Red. masses --      1.0374                 1.0419                 1.0390
 Frc consts  --      5.5811                 5.6276                 5.6484
 IR Inten    --     34.6672                11.3836                17.2470

                     46                     47                     48
                      A                      A                      A
 Frequencies --   3069.0630              3109.5619              3109.9011
 Red. masses --      1.1045                 1.1051                 1.1050
 Frc consts  --      6.1295                 6.2956                 6.2964
 IR Inten    --     17.6271                 0.0627                 0.8850

                     49                     50                     51
                      A                      A                      A
 Frequencies --   3111.8486              3114.6408              3119.3383
 Red. masses --      1.1045                 1.1037                 1.1044
 Frc consts  --      6.3014                 6.3084                 6.3316
 IR Inten    --     29.5820                55.5051                18.4166

                     52                     53                     54
                      A                      A                      A
 Frequencies --   3121.3987              3126.9905              3133.6830
 Red. masses --      1.1038                 1.1031                 1.1045
 Frc consts  --      6.3365                 6.3548                 6.3902
 IR Inten    --     45.3758                33.4559                24.3013

 Optimization completed on the basis of negligible forces.
    -- Stationary point found.
 Normal termination of Gaussian 16 at Thu Aug  4 16:17:40 2022.
