 Gaussian 16, Revision B.01,
 Gaussian 16:  ES64L-G16RevB.01 20-Dec-2017

 ----------------------------------------------------------------------
 #T wB97XD/def2svpp opt=tight freq int(grid=ultrafine) scf=(verytight,q
 c)
 ----------------------------------------------------------------------
 --------------
 Comment gs min
 --------------
 Symbolic Z-matrix:
 Charge =  1 Multiplicity = 2

 SCF Done:  E(UwB97XD) =  -307.797200859     a.u. after    8 cycles
 SCF Done:  E(UwB97XD) =  -307.815207610     a.u. after   11 cycles
 SCF Done:  E(UwB97XD) =  -307.822581514     a.u. after   15 cycles
 SCF Done:  E(UwB97XD) =  -307.825750137     a.u. after   11 cycles
 SCF Done:  E(UwB97XD) =  -307.827211783     a.u. after    8 cycles
 SCF Done:  E(UwB97XD) =  -307.826848818     a.u. after   11 cycles
 SCF Done:  E(UwB97XD) =  -307.827573484     a.u. after    9 cycles
 SCF Done:  E(UwB97XD) =  -307.828199467     a.u. after    6 cycles
 SCF Done:  E(UwB97XD) =  -307.828454497     a.u. after    6 cycles
 SCF Done:  E(UwB97XD) =  -307.828621619     a.u. after    8 cycles
 SCF Done:  E(UwB97XD) =  -307.836050907     a.u. after    2 cycles
 SCF Done:  E(UwB97XD) =  -307.836050907     a.u. after    2 cycles
 SCF Done:  E(UwB97XD) =  -307.836050906     a.u. after    2 cycles
 SCF Done:  E(UwB97XD) =  -307.836050906     a.u. after    2 cycles
 SCF Done:  E(UwB97XD) =  -307.836050906     a.u. after    2 cycles
 SCF Done:  E(UwB97XD) =  -307.836050906     a.u. after    2 cycles
 SCF Done:  E(UwB97XD) =  -307.836050906     a.u. after    2 cycles
 SCF Done:  E(UwB97XD) =  -307.836050906     a.u. after    2 cycles
 SCF Done:  E(UwB97XD) =  -307.836050906     a.u. after    2 cycles
 Optimization completed.
    -- Stationary point found.
 Normal termination of Gaussian 16 at Mon Jul 10 23:56:05 2023.

 ---------------------------------------------------------------------
 #T Geom=AllCheck Guess=TCheck SCRF=Check GenChk UwB97XD/def2SVPP Freq
 ---------------------------------------------------------------------
 Structure from the checkpoint file:  "41.chk"
 --------------
 Comment gs min
 --------------
 Charge =  1 Multiplicity = 2

                         Standard orientation:
 ---------------------------------------------------------------------
 Center     Atomic      Atomic             Coordinates (Angstroms)
 Number     Number       Type             X           Y           Z
 ---------------------------------------------------------------------
      1          6           0       -0.614426    1.756933   -0.618689
      2          6           0       -0.059810    0.456753   -0.007125
      3          6           0       -0.189396    0.512767    1.524794
      4          6           0       -0.755616   -0.765136   -0.590812
      5          7           0       -1.952497   -1.181214   -0.063574
      6          6           0        1.422966    0.343963   -0.411345
      7          7           0        1.933684   -1.005255    0.007565
      8          1           0       -1.685178    1.852856   -0.377458
      9          1           0       -0.515213    1.759128   -1.717479
     10          1           0       -0.091222    2.644270   -0.219488
     11          1           0       -1.229882    0.727463    1.819802
     12          1           0        0.427520    1.327439    1.941211
     13          1           0        0.100911   -0.432647    2.021854
     14          1           0        1.110272   -1.648483   -0.175861
     15          1           0       -0.712212   -0.857338   -1.685860
     16          1           0       -2.107328   -1.167927    0.939317
     17          1           0       -2.493748   -1.874927   -0.568331
     18          1           0        2.055594    1.119591    0.045377
     19          1           0        1.535185    0.390381   -1.505406
     20          1           0        2.154456   -1.048114    1.011575
     21          1           0        2.760231   -1.318085   -0.518130
 ---------------------------------------------------------------------

 SCF Done:  E(UwB97XD) =  -307.836050906     a.u. after    1 cycles

 The electronic state is 2-A.
 Alpha  occ. eigenvalues --  -14.73544 -14.60130 -10.52043 -10.47925 -10.46798
 Alpha  occ. eigenvalues --  -10.43809 -10.42083  -1.27249  -1.15558  -1.06905
 Alpha  occ. eigenvalues --   -0.96028  -0.92693  -0.90764  -0.85649  -0.84577
 Alpha  occ. eigenvalues --   -0.79561  -0.77252  -0.73907  -0.72168  -0.68000
 Alpha  occ. eigenvalues --   -0.66163  -0.65324  -0.62695  -0.60843  -0.58882
 Alpha  occ. eigenvalues --   -0.57607  -0.57334  -0.56318  -0.38103
 Alpha virt. eigenvalues --   -0.06704  -0.01988  -0.00536   0.00159   0.02304
 Alpha virt. eigenvalues --    0.03738   0.04183   0.05078   0.06219   0.07805
 Alpha virt. eigenvalues --    0.09020   0.09859   0.11435   0.12374   0.12669

  Beta  occ. eigenvalues --  -14.73414 -14.59561 -10.52026 -10.47934 -10.46007
  Beta  occ. eigenvalues --  -10.43802 -10.42016  -1.26987  -1.14009  -1.06527
  Beta  occ. eigenvalues --   -0.95920  -0.92429  -0.89296  -0.85511  -0.83878
  Beta  occ. eigenvalues --   -0.79113  -0.76815  -0.73614  -0.71763  -0.67621
  Beta  occ. eigenvalues --   -0.65561  -0.65144  -0.61785  -0.60780  -0.58093
  Beta  occ. eigenvalues --   -0.57378  -0.56385  -0.52384
  Beta virt. eigenvalues --   -0.11953  -0.06046  -0.01910  -0.00394   0.00722
  Beta virt. eigenvalues --    0.02734   0.04344   0.04494   0.05200   0.06333
  Beta virt. eigenvalues --    0.07938   0.09127   0.10364   0.11586   0.12643

 Mulliken charges and spin densities:
               1          2
     1  C   -0.253015   0.022759
     2  C   -0.272856  -0.028857
     3  C   -0.339190  -0.000727
     4  C   -0.178176   0.687252
     5  N   -0.393265   0.279941
     6  C   -0.077259   0.003735
     7  N   -0.433815   0.026481
     8  H    0.161657  -0.002201
     9  H    0.141016   0.000092
    10  H    0.146953   0.009571
    11  H    0.171231   0.000537
    12  H    0.156890  -0.001035
    13  H    0.122807  -0.000107
    14  H    0.313892   0.047612
    15  H    0.136339  -0.022913
    16  H    0.275245  -0.010018
    17  H    0.285560  -0.012352
    18  H    0.183673  -0.000995
    19  H    0.175074  -0.000520
    20  H    0.336894   0.001337
    21  H    0.340344   0.000406
 Sum of Mulliken charges =   1.00000   1.00000

 Dipole moment (field-independent basis, Debye):
    X=              4.6630    Y=             -3.5588    Z=              0.3382  Tot=              5.8756
  Exact polarizability:  75.600   0.678  63.919  -1.289  -0.301  61.325
 Approx polarizability:  74.853   1.339  65.242  -1.551   0.301  66.387
                          Isotropic Fermi Contact Couplings
        Atom                 a.u.       MegaHertz       Gauss      10(-4) cm-1
     1  C(13)              0.03914      43.99594      15.69885      14.67547
     2  C(13)             -0.00887      -9.97417      -3.55903      -3.32702
     3  C(13)              0.00545       6.12558       2.18576       2.04327
     4  C(13)              0.15761     177.18268      63.22319      59.10178
     5  N(14)              0.08818      28.49220      10.16672       9.50397
     6  C(13)              0.01748      19.64613       7.01023       6.55324

                      1                      2                      3
                      A                      A                      A
 Frequencies --    110.8069               164.6384               223.8270
 Red. masses --      2.8461                 2.1573                 2.4044
 Frc consts  --      0.0206                 0.0345                 0.0710
 IR Inten    --      8.3744                10.7266                30.0749

                      4                      5                      6
                      A                      A                      A
 Frequencies --    241.2190               279.5415               285.7332
 Red. masses --      1.1804                 1.3117                 1.4432
 Frc consts  --      0.0405                 0.0604                 0.0694
 IR Inten    --      4.0183                 1.9534                 8.5773

                      7                      8                      9
                      A                      A                      A
 Frequencies --    308.7171               352.7527               365.7029
 Red. masses --      1.3164                 1.1971                 2.2134
 Frc consts  --      0.0739                 0.0878                 0.1744
 IR Inten    --      1.6864                 4.5242                 3.8002

                     10                     11                     12
                      A                      A                      A
 Frequencies --    406.2617               434.2260               489.0690
 Red. masses --      2.0487                 1.6154                 1.3730
 Frc consts  --      0.1992                 0.1795                 0.1935
 IR Inten    --     24.5715                89.1031               152.2760

                     13                     14                     15
                      A                      A                      A
 Frequencies --    501.5322               562.9126               735.6261
 Red. masses --      2.5198                 2.4841                 3.1060
 Frc consts  --      0.3734                 0.4638                 0.9903
 IR Inten    --      6.0090                 9.6865                 2.0532

                     16                     17                     18
                      A                      A                      A
 Frequencies --    828.5947               863.3314               897.3972
 Red. masses --      1.3988                 1.3115                 1.6915
 Frc consts  --      0.5658                 0.5759                 0.8026
 IR Inten    --     28.8881                 8.6754                14.8170

                     19                     20                     21
                      A                      A                      A
 Frequencies --    957.6788               969.5375               990.6996
 Red. masses --      1.5843                 1.7931                 2.0776
 Frc consts  --      0.8561                 0.9931                 1.2014
 IR Inten    --      7.0658                 1.5183                12.7572

                     22                     23                     24
                      A                      A                      A
 Frequencies --   1022.2151              1077.4037              1086.4000
 Red. masses --      1.2837                 1.4408                 1.3881
 Frc consts  --      0.7903                 0.9854                 0.9653
 IR Inten    --      6.2556                59.2957                25.5543

                     25                     26                     27
                      A                      A                      A
 Frequencies --   1129.2437              1218.8782              1253.2888
 Red. masses --      1.3134                 2.6843                 2.5628
 Frc consts  --      0.9868                 2.3497                 2.3718
 IR Inten    --     25.4427                18.9321                 6.7035

                     28                     29                     30
                      A                      A                      A
 Frequencies --   1292.9244              1327.1207              1354.7736
 Red. masses --      2.1558                 1.7095                 1.3789
 Frc consts  --      2.1233                 1.7739                 1.4911
 IR Inten    --      5.1646                15.5027                12.2236

                     31                     32                     33
                      A                      A                      A
 Frequencies --   1401.3523              1411.9273              1430.2188
 Red. masses --      1.3472                 1.2707                 1.2703
 Frc consts  --      1.5588                 1.4926                 1.5309
 IR Inten    --      7.3389                 9.7529                 5.1734

                     34                     35                     36
                      A                      A                      A
 Frequencies --   1455.0664              1476.0739              1484.8778
 Red. masses --      1.2027                 1.0518                 1.3708
 Frc consts  --      1.5003                 1.3502                 1.7808
 IR Inten    --    209.6440                 0.9366                14.4611

                     37                     38                     39
                      A                      A                      A
 Frequencies --   1487.7438              1496.1255              1501.8381
 Red. masses --      1.1222                 1.0812                 1.0861
 Frc consts  --      1.4635                 1.4259                 1.4434
 IR Inten    --     17.6678                15.7571                14.7325

                     40                     41                     42
                      A                      A                      A
 Frequencies --   1526.8026              1629.8954              1652.8414
 Red. masses --      1.2240                 1.0516                 1.0440
 Frc consts  --      1.6811                 1.6460                 1.6804
 IR Inten    --     25.0947                30.0825                33.8363

                     43                     44                     45
                      A                      A                      A
 Frequencies --   1674.6732              2923.9667              3024.6140
 Red. masses --      1.2643                 1.0698                 1.0424
 Frc consts  --      2.0892                 5.3891                 5.6188
 IR Inten    --     88.3788               534.2798                18.8087

                     46                     47                     48
                      A                      A                      A
 Frequencies --   3037.0526              3099.7971              3114.6857
 Red. masses --      1.0380                 1.0623                 1.1013
 Frc consts  --      5.6412                 6.0143                 6.2946
 IR Inten    --      8.6775                 1.2085                11.9234

                     49                     50                     51
                      A                      A                      A
 Frequencies --   3130.8213              3141.3915              3143.0021
 Red. masses --      1.1055                 1.1031                 1.0893
 Frc consts  --      6.3845                 6.4140                 6.3397
 IR Inten    --      7.5957                 3.5467                 7.0702

                     52                     53                     54
                      A                      A                      A
 Frequencies --   3152.7572              3173.6446              3432.4915
 Red. masses --      1.1051                 1.1129                 1.0559
 Frc consts  --      6.4717                 6.6042                 7.3299
 IR Inten    --      4.1299                 0.6886               116.8101

                     55                     56                     57
                      A                      A                      A
 Frequencies --   3499.7246              3580.8287              3680.2197
 Red. masses --      1.0969                 1.0486                 1.1026
 Frc consts  --      7.9153                 7.9221                 8.7989
 IR Inten    --    106.0086                74.4402                63.3796

 Optimization completed.
    -- Stationary point found.
 Normal termination of Gaussian 16 at Mon Jul 10 23:58:56 2023.
