 Gaussian 16, Revision B.01,
 Gaussian 16:  ES64L-G16RevB.01 20-Dec-2017

 ----------------------------------------------------------------------
 #T wB97XD/def2svpp opt=(tight,calcall,MaxStep=15) freq int(grid=ultraf
 ine) scf=(verytight,qc) Volume=tight
 ----------------------------------------------------------------------
 -------
 Monomer
 -------
 Symbolic Z-matrix:
 Charge =  0 Multiplicity = 1

 SCF Done:  E(RwB97XD) =  -2035.36357393     a.u. after    7 cycles
 SCF Done:  E(RwB97XD) =  -2035.36357681     a.u. after    2 cycles
 SCF Done:  E(RwB97XD) =  -2035.36358209     a.u. after    2 cycles
 SCF Done:  E(RwB97XD) =  -2035.36358222     a.u. after    2 cycles
 SCF Done:  E(RwB97XD) =  -2035.36357987     a.u. after    2 cycles
 SCF Done:  E(RwB97XD) =  -2035.36357210     a.u. after    2 cycles
 SCF Done:  E(RwB97XD) =  -2035.36357384     a.u. after    2 cycles
 SCF Done:  E(RwB97XD) =  -2035.36357547     a.u. after    2 cycles
 SCF Done:  E(RwB97XD) =  -2035.36357952     a.u. after    2 cycles
 SCF Done:  E(RwB97XD) =  -2035.36357988     a.u. after    2 cycles
 SCF Done:  E(RwB97XD) =  -2035.36357206     a.u. after    2 cycles
 SCF Done:  E(RwB97XD) =  -2035.36357230     a.u. after    2 cycles
 SCF Done:  E(RwB97XD) =  -2035.36357230     a.u. after    2 cycles
 SCF Done:  E(RwB97XD) =  -2035.36357501     a.u. after    3 cycles
 SCF Done:  E(RwB97XD) =  -2035.36357485     a.u. after    2 cycles
 SCF Done:  E(RwB97XD) =  -2035.36357500     a.u. after    2 cycles
 SCF Done:  E(RwB97XD) =  -2035.36357501     a.u. after    2 cycles
 SCF Done:  E(RwB97XD) =  -2035.36357501     a.u. after    2 cycles
 SCF Done:  E(RwB97XD) =  -2035.36357501     a.u. after    2 cycles
 Optimization completed.
    -- Stationary point found.

 1\1\GINC-C129\Freq\RwB97XD\def2SVPP\C5H8Cl4\PETERCHAO1\13-Nov-2023\0\\
 #T wB97XD/def2svpp opt=(tight,calcall,MaxStep=15) freq int(grid=ultraf
 ine) scf=(verytight,qc) Volume=tight\\Monomer\\0,1\Cl,-1.1528655313,-0
 .8912658801,2.3855115658\C,0.0487519231,0.134456937,1.5321349545\C,0.0
 0000006,-0.0000000586,-0.0000000008\C,1.048565167,0.9475454856,-0.6087
 377173\Cl,2.7296030011,0.5969461379,-0.0839183744\C,0.287626196,-1.464
 9845638,-0.372806324\Cl,0.300841231,-1.7704832477,-2.1421958689\C,-1.3
 84943046,0.3829819069,-0.5505909165\Cl,-1.8775784607,2.0648027557,-0.1

 Normal termination of Gaussian 16 at Mon Nov 13 18:34:22 2023.

 ---------------------------------------------------------------------
 #T Geom=AllCheck Guess=TCheck SCRF=Check GenChk RwB97XD/def2SVPP Freq
 ---------------------------------------------------------------------
 Structure from the checkpoint file:  "1.chk"
 -------
 Monomer
 -------
 Charge =  0 Multiplicity = 1

                         Standard orientation:
 ---------------------------------------------------------------------
 Center     Atomic      Atomic             Coordinates (Angstroms)
 Number     Number       Type             X           Y           Z
 ---------------------------------------------------------------------
      1         17           0       -1.983690   -0.000000    1.969541
      2          6           0       -0.891523   -0.904950    0.868415
      3          6           0        0.000000    0.000000    0.000000
      4          6           0        0.904950   -0.891523   -0.868415
      5         17           0        0.000000   -1.983690   -1.969541
      6          6           0       -0.904950    0.891523   -0.868415
      7         17           0       -0.000000    1.983690   -1.969541
      8          6           0        0.891523    0.904950    0.868415
      9         17           0        1.983690    0.000000    1.969541
     10          1           0       -1.527169   -1.539311    0.235803
     11          1           0       -0.265644   -1.546441    1.505012
     12          1           0        1.539311   -1.527169   -0.235803
     13          1           0        1.546441   -0.265644   -1.505012
     14          1           0       -1.539311    1.527169   -0.235803
     15          1           0       -1.546441    0.265644   -1.505012
     16          1           0        0.265644    1.546441    1.505012
     17          1           0        1.527169    1.539311    0.235803
 ---------------------------------------------------------------------

 SCF Done:  E(RwB97XD) =  -2035.36357501     a.u. after    1 cycles

 The electronic state is 1-A.
 Alpha  occ. eigenvalues -- -101.67947-101.67946-101.67945-101.67945 -10.36889
 Alpha  occ. eigenvalues --  -10.36889 -10.36886 -10.36883 -10.36577  -9.58708
 Alpha  occ. eigenvalues --   -9.58708  -9.58707  -9.58707  -7.34092  -7.34092
 Alpha  occ. eigenvalues --   -7.34092  -7.34092  -7.33128  -7.33128  -7.33127
 Alpha  occ. eigenvalues --   -7.33127  -7.33092  -7.33092  -7.33092  -7.33092
 Alpha  occ. eigenvalues --   -1.01522  -0.96323  -0.95757  -0.95757  -0.88461
 Alpha  occ. eigenvalues --   -0.78489  -0.78489  -0.76486  -0.65528  -0.61168
 Alpha  occ. eigenvalues --   -0.58375  -0.58375  -0.56157  -0.53752  -0.51081
 Alpha  occ. eigenvalues --   -0.51081  -0.49897  -0.47742  -0.47742  -0.47104
 Alpha  occ. eigenvalues --   -0.41444  -0.40067  -0.40067  -0.39479  -0.38789
 Alpha  occ. eigenvalues --   -0.38027  -0.38027  -0.37950
 Alpha virt. eigenvalues --    0.09852   0.10046   0.10482   0.10482   0.15499
 Alpha virt. eigenvalues --    0.16379   0.16379   0.16912   0.18576   0.21189
 Alpha virt. eigenvalues --    0.22470   0.22470   0.25021   0.25658   0.27432

 Mulliken charges:
               1
     1  Cl  -0.143064
     2  C   -0.130059
     3  C   -0.280232
     4  C   -0.130059
     5  Cl  -0.143064
     6  C   -0.130059
     7  Cl  -0.143064
     8  C   -0.130059
     9  Cl  -0.143064
    10  H    0.171194
    11  H    0.171987
    12  H    0.171194
    13  H    0.171987
    14  H    0.171194
    15  H    0.171987
    16  H    0.171987
    17  H    0.171194
 Sum of Mulliken charges =  -0.00000

 Dipole moment (field-independent basis, Debye):
    X=             -0.0000    Y=              0.0000    Z=              0.0000  Tot=              0.0000
  Exact polarizability:  82.283   0.000  82.283  -0.000  -0.000  91.434
 Approx polarizability:  96.623  -0.000  96.623   0.000   0.000 101.732
   4 Symmetry operations used in ECPInt.
 ECPInt:  NShTT=    3081 NPrTT=   13711 LenC2=    2992 LenP2D=    9821.
 LDataN:  DoStor=T MaxTD1= 6 Len=  172
 Calling FoFJK, ICntrl=    100127 FMM=F ISym2X=1 I1Cent= 0 IOpClX= 0 NMat=1 NMatS=1 NMatT=0.
 Full mass-weighted force constant matrix:
 Low frequencies ---    0.0009    0.0012    0.0016    6.8048    6.8048    8.2354
 Low frequencies ---   56.8148   74.1273  117.7589
 Diagonal vibrational polarizability:

                      1                      2                      3
                      B                      A                      B
 Frequencies --     56.8148                74.1244               117.7589
 Red. masses --     10.3395                22.5272                19.6499
 Frc consts  --      0.0197                 0.0729                 0.1605
 IR Inten    --      1.7923                 0.0000                 1.0739

                      4                      5                      6
                      E                      E                      A
 Frequencies --    125.9731               125.9731               225.4234
 Red. masses --      5.9980                 5.9980                 7.7093
 Frc consts  --      0.0561                 0.0561                 0.2308
 IR Inten    --      3.9329                 3.9329                 0.0000

                      7                      8                      9
                      E                      E                      A
 Frequencies --    230.8974               230.8974               314.2673
 Red. masses --      3.7691                 3.7691                 2.5613
 Frc consts  --      0.1184                 0.1184                 0.1490
 IR Inten    --      4.2639                 4.2639                 0.0000

                     10                     11                     12
                      B                      E                      E
 Frequencies --    324.0735               424.2829               424.2829
 Red. masses --      2.6368                 4.1619                 4.1619
 Frc consts  --      0.1632                 0.4414                 0.4414
 IR Inten    --      5.7334                 4.5559                 4.5559

                     13                     14                     15
                      B                      A                      E
 Frequencies --    552.0480               704.6262               786.6229
 Red. masses --      3.5111                 4.7308                 4.0957
 Frc consts  --      0.6304                 1.3839                 1.4932
 IR Inten    --      9.4790                 0.0000                33.8901

                     16                     17                     18
                      E                      B                      A
 Frequencies --    786.6229               802.6323               839.0687
 Red. masses --      4.0957                 5.6990                 4.2420
 Frc consts  --      1.4932                 2.1631                 1.7596
 IR Inten    --     33.8901                27.0802                 0.0000

                     19                     20                     21
                      E                      E                      B
 Frequencies --    884.5689               884.5689               899.2301
 Red. masses --      1.7523                 1.7523                 2.1495
 Frc consts  --      0.8078                 0.8078                 1.0241
 IR Inten    --      9.3697                 9.3697                42.1398

                     22                     23                     24
                      A                      B                      E
 Frequencies --    952.1784              1091.6468              1140.4011
 Red. masses --      1.5665                 1.6391                 1.6710
 Frc consts  --      0.8368                 1.1508                 1.2804
 IR Inten    --      0.0000                 3.1461                 0.0406

                     25                     26                     27
                      E                      A                      E
 Frequencies --   1140.4011              1215.5949              1250.3406
 Red. masses --      1.6710                 1.0185                 1.3882
 Frc consts  --      1.2804                 0.8867                 1.2787
 IR Inten    --      0.0406                 0.0000                 0.4274

                     28                     29                     30
                      E                      B                      A
 Frequencies --   1250.3406              1299.8062              1342.5137
 Red. masses --      1.3882                 1.1678                 1.2122
 Frc consts  --      1.2787                 1.1625                 1.2872
 IR Inten    --      0.4274                12.8636                 0.0000

                     31                     32                     33
                      E                      E                      B
 Frequencies --   1356.2036              1356.2036              1362.8525
 Red. masses --      1.5149                 1.5149                 1.6231
 Frc consts  --      1.6417                 1.6417                 1.7762
 IR Inten    --     14.0797                14.0797                 6.3417

                     34                     35                     36
                      B                      A                      E
 Frequencies --   1473.8991              1478.2155              1478.5632
 Red. masses --      1.0952                 1.0952                 1.0837
 Frc consts  --      1.4017                 1.4100                 1.3958
 IR Inten    --      2.7073                 0.0000                27.8905

                     37                     38                     39
                      E                      B                      E
 Frequencies --   1478.5632              3111.0692              3112.3117
 Red. masses --      1.0837                 1.0606                 1.0601
 Frc consts  --      1.3958                 6.0480                 6.0501
 IR Inten    --     27.8905                 2.4423                 5.2603

                     40                     41                     42
                      E                      A                      A
 Frequencies --   3112.3117              3113.4754              3186.3807
 Red. masses --      1.0601                 1.0603                 1.1127
 Frc consts  --      6.0501                 6.0560                 6.6560
 IR Inten    --      5.2603                 0.0000                 0.0000

                     43                     44                     45
                      E                      E                      B
 Frequencies --   3187.3808              3187.3808              3188.0941
 Red. masses --      1.1105                 1.1105                 1.1112
 Frc consts  --      6.6471                 6.6471                 6.6544
 IR Inten    --      0.1291                 0.1291                 0.0043

 Optimization completed.
    -- Stationary point found.

 1\1\GINC-C129\Freq\RwB97XD\def2SVPP\C5H8Cl4\PETERCHAO1\13-Nov-2023\0\\
 #T Geom=AllCheck Guess=TCheck SCRF=Check GenChk RwB97XD/def2SVPP Freq\
 \Monomer\\0,1\Cl,-1.1528655313,-0.8912658801,2.3855115658\C,0.04875192
 31,0.134456937,1.5321349545\C,0.00000006,-0.0000000586,-0.0000000008\C
 ,1.048565167,0.9475454856,-0.6087377173\Cl,2.7296030011,0.5969461379,-
 0.0839183744\C,0.287626196,-1.4649845638,-0.372806324\Cl,0.300841231,-
 1.7704832477,-2.1421958689\C,-1.384943046,0.3829819069,-0.5505909165\C
 l,-1.8775784607,2.0648027557,-0.1593973257\H,1.0398943455,-0.149089583

 Normal termination of Gaussian 16 at Mon Nov 13 18:35:21 2023.
