 Gaussian 16, Revision B.01,
 Gaussian 16:  ES64L-G16RevB.01 20-Dec-2017

 --------------------------------------------------------------
 #T wB97XD//def2svpp Volume=tight Geom=AllCheckpoint Guess=Read
 --------------------------------------------------------------
 Structure from the checkpoint file:  "24.chk"
 -------
 Monomer
 -------
 Charge =  0 Multiplicity = 1

                         Standard orientation:
 ---------------------------------------------------------------------
 Center     Atomic      Atomic             Coordinates (Angstroms)
 Number     Number       Type             X           Y           Z
 ---------------------------------------------------------------------
      1          8           0       -0.000927    1.643373   -0.542145
      2          6           0        0.191025    1.135229    0.772722
      3          6           0       -0.011607   -0.374791    0.746871
      4          6           0       -1.472397   -0.750387    0.462807
      5          8           0       -1.900789   -0.379974   -0.819949
      6          6           0        0.932035   -1.050902   -0.264047
      7          8           0        2.237846   -0.528912   -0.247329
      8          1           0        0.052832    2.607729   -0.528496
      9          1           0       -0.528946    1.595375    1.478490
     10          1           0        1.213146    1.363818    1.127522
     11          1           0        0.239408   -0.730908    1.763018
     12          1           0       -2.115428   -0.299083    1.250106
     13          1           0       -1.595938   -1.845255    0.540260
     14          1           0       -1.519505    0.492223   -1.016551
     15          1           0        0.484252   -0.982512   -1.271570
     16          1           0        1.013944   -2.122603   -0.017209
     17          1           0        2.232857    0.290425   -0.760300
 ---------------------------------------------------------------------

 SCF Done:  E(RwB97XD) =  -383.656814754     A.U. after    1 cycles

 The electronic state is 1-A.
 Alpha  occ. eigenvalues --  -19.28343 -19.24436 -19.22986 -10.35318 -10.33201
 Alpha  occ. eigenvalues --  -10.32930 -10.29894  -1.14241  -1.10708  -1.09632
 Alpha  occ. eigenvalues --   -0.88615  -0.77704  -0.75357  -0.66554  -0.64258
 Alpha  occ. eigenvalues --   -0.60473  -0.58489  -0.54875  -0.53988  -0.50475
 Alpha  occ. eigenvalues --   -0.49866  -0.48893  -0.47132  -0.43875  -0.40557
 Alpha  occ. eigenvalues --   -0.40030  -0.37061  -0.36026  -0.33247
 Alpha virt. eigenvalues --    0.10637   0.14747   0.16527   0.17700   0.19303
 Alpha virt. eigenvalues --    0.20049   0.22043   0.22175   0.24609   0.25306
 Alpha virt. eigenvalues --    0.27092   0.28888   0.29717   0.31248   0.34809

 Mulliken charges:
               1
     1  O   -0.514271
     2  C   -0.018873
     3  C   -0.274406
     4  C    0.059356
     5  O   -0.509320
     6  C    0.037144
     7  O   -0.491814
     8  H    0.332252
     9  H    0.104636
    10  H    0.114897
    11  H    0.106075
    12  H    0.083112
    13  H    0.103678
    14  H    0.326240
    15  H    0.112102
    16  H    0.106999
    17  H    0.322195
 Sum of Mulliken charges =  -0.00000

 Dipole moment (field-independent basis, Debye):
    X=              0.3378    Y=              3.2004    Z=              1.3219  Tot=              3.4791
 Evaluate density.
 Using the total density.
 Monte-Carlo method of calculating molar volume:
 based on  0.001 e/bohr**3 density envelope.
 Number of points per bohr**3 =  100 CutOff= 1.00D-04
 Using the SCF density.
 There are      1681 points.  Will hold      1681 in memory.
 LenV=  1048344255 MDV=  1048576000.
 Box volume = 4754.802 fraction occupied=0.203
 Integrated density= 4.6586253305848039D+01 error=-1.1413746694151961D+01

 Normal termination of Gaussian 16 at Fri Sep 23 14:20:02 2022.
