 Gaussian 16, Revision B.01,
 Gaussian 16:  ES64L-G16RevB.01 20-Dec-2017

 ----------------------------------------------------------------------
 #T wB97XD/def2svpp opt=tight freq int(grid=ultrafine) scf=(verytight,q
 c)
 ----------------------------------------------------------------------
 -----
 dimer
 -----
 Symbolic Z-matrix:
 Charge =  0 Multiplicity = 1

 SCF Done:  E(RwB97XD) =  -6093.69272262     a.u. after    9 cycles
 SCF Done:  E(RwB97XD) =  -6093.69144110     a.u. after   27 cycles
 SCF Done:  E(RwB97XD) =  -6093.69852026     a.u. after   14 cycles
 SCF Done:  E(RwB97XD) =  -6093.69419984     a.u. after   19 cycles
 SCF Done:  E(RwB97XD) =  -6093.70003719     a.u. after   19 cycles
 SCF Done:  E(RwB97XD) =  -6093.70045562     a.u. after   11 cycles
 SCF Done:  E(RwB97XD) =  -6093.70055058     a.u. after   15 cycles
 SCF Done:  E(RwB97XD) =  -6093.70119016     a.u. after   16 cycles
 SCF Done:  E(RwB97XD) =  -6093.70147779     a.u. after   13 cycles
 SCF Done:  E(RwB97XD) =  -6093.70175773     a.u. after   13 cycles
 SCF Done:  E(RwB97XD) =  -6093.70635938     a.u. after    4 cycles
 SCF Done:  E(RwB97XD) =  -6093.70636235     a.u. after    6 cycles
 SCF Done:  E(RwB97XD) =  -6093.70636375     a.u. after    5 cycles
 SCF Done:  E(RwB97XD) =  -6093.70636445     a.u. after    2 cycles
 SCF Done:  E(RwB97XD) =  -6093.70636450     a.u. after    2 cycles
 SCF Done:  E(RwB97XD) =  -6093.70636452     a.u. after    2 cycles
 SCF Done:  E(RwB97XD) =  -6093.70636452     a.u. after    2 cycles
 SCF Done:  E(RwB97XD) =  -6093.70636452     a.u. after    2 cycles
 SCF Done:  E(RwB97XD) =  -6093.70636452     a.u. after    2 cycles
 Optimization completed.
    -- Stationary point found.
 Normal termination of Gaussian 16 at Tue Aug  9 22:32:10 2022.

 ---------------------------------------------------------------------
 #T Geom=AllCheck Guess=TCheck SCRF=Check GenChk RwB97XD/def2SVPP Freq
 ---------------------------------------------------------------------
 Structure from the checkpoint file:  "/scratch/user/peterchao1/peterchao1/6113326_1660079104000000081366362/Gau-88362.chk"
 -----
 dimer
 -----
 Charge =  0 Multiplicity = 1

                         Standard orientation:
 ---------------------------------------------------------------------
 Center     Atomic      Atomic             Coordinates (Angstroms)
 Number     Number       Type             X           Y           Z
 ---------------------------------------------------------------------
      1          8           0        1.385302    0.942366   -2.200107
      2          6           0        2.319545    0.038141   -1.686825
      3          6           0        2.576988    0.253127   -0.186999
      4         35           0        4.061464   -0.878900    0.348591
      5          6           0        2.867907    1.717641    0.178882
      6          8           0        1.744154    2.516264    0.026774
      7          7           0        1.376506   -0.217953    0.638349
      8          8           0        1.319876    0.123703    1.790380
      9          8           0        0.557964   -0.911454    0.073414
     10          1           0        0.480149    0.583648   -2.148894
     11          1           0        3.279498    0.231356   -2.193044
     12          1           0        2.040070   -1.011806   -1.869907
     13          1           0        3.723917    2.035102   -0.452380
     14          1           0        3.179713    1.772785    1.231753
     15          1           0        1.405115    2.393632   -0.878613
     16          8           0       -2.332535    1.648844    1.988762
     17          6           0       -2.271606    0.296151    1.626623
     18          6           0       -2.680388    0.037590    0.161692
     19         35           0       -2.865108   -1.864320   -0.100457
     20          6           0       -3.998319    0.741221   -0.243185
     21          8           0       -3.880420    2.121189   -0.239435
     22          7           0       -1.595365    0.567247   -0.764468
     23          8           0       -0.959492    1.511516   -0.350855
     24          8           0       -1.443445    0.069661   -1.853710
     25          1           0       -1.544261    2.083744    1.624054
     26          1           0       -3.000843   -0.237916    2.254447
     27          1           0       -1.272404   -0.139514    1.804840
     28          1           0       -4.775262    0.361096    0.451285
     29          1           0       -4.268885    0.426595   -1.263423
     30          1           0       -3.603269    2.388976    0.655108
 ---------------------------------------------------------------------

 SCF Done:  E(RwB97XD) =  -6093.70636452     a.u. after    1 cycles

 The electronic state is 1-A.
 Alpha  occ. eigenvalues -- -483.08914-483.08472 -62.67126 -62.66685 -56.47917
 Alpha  occ. eigenvalues --  -56.47527 -56.47516 -56.47482 -56.47081 -56.47075
 Alpha  occ. eigenvalues --  -19.33093 -19.32929 -19.32036 -19.31960 -19.28702
 Alpha  occ. eigenvalues --  -19.28257 -19.26812 -19.25851 -14.71798 -14.71050
 Alpha  occ. eigenvalues --  -10.42840 -10.42480 -10.37909 -10.37899 -10.37871
 Alpha  occ. eigenvalues --  -10.36909  -8.84076  -8.83640  -6.66689  -6.66275
 Alpha  occ. eigenvalues --   -6.65282  -6.65243  -6.64826  -6.64806  -2.77041
 Alpha  occ. eigenvalues --   -2.76652  -2.76626  -2.76620  -2.76218  -2.76202
 Alpha  occ. eigenvalues --   -2.75499  -2.75498  -2.75046  -2.75046  -1.37835
 Alpha  occ. eigenvalues --   -1.36808  -1.19897  -1.19041  -1.15744  -1.15242
 Alpha  occ. eigenvalues --   -1.13618  -1.12670  -0.98810  -0.98417  -0.87192
 Alpha  occ. eigenvalues --   -0.86893  -0.81617  -0.81250  -0.80502  -0.79762
 Alpha  occ. eigenvalues --   -0.70638  -0.69716  -0.68135  -0.67066  -0.66754
 Alpha  occ. eigenvalues --   -0.66130  -0.64896  -0.63952  -0.63519  -0.62762
 Alpha  occ. eigenvalues --   -0.59092  -0.58354  -0.57549  -0.56984  -0.55665
 Alpha  occ. eigenvalues --   -0.55192  -0.53460  -0.53273  -0.51426  -0.50488
 Alpha  occ. eigenvalues --   -0.47781  -0.47105  -0.45042  -0.44108  -0.43938
 Alpha  occ. eigenvalues --   -0.43271  -0.42925  -0.42508  -0.42384  -0.41054
 Alpha  occ. eigenvalues --   -0.40273  -0.40000  -0.39615  -0.39162  -0.38684
 Alpha  occ. eigenvalues --   -0.38187  -0.37200  -0.36852
 Alpha virt. eigenvalues --   -0.03356  -0.02476   0.04971   0.05566   0.13814
 Alpha virt. eigenvalues --    0.14069   0.14602   0.15387   0.16391   0.17204
 Alpha virt. eigenvalues --    0.18487   0.19277   0.19732   0.20224   0.21112

 Mulliken charges:
               1
     1  O   -0.511838
     2  C    0.103768
     3  C   -0.302972
     4  Br   0.013451
     5  C    0.125745
     6  O   -0.488715
     7  N    0.279755
     8  O   -0.201662
     9  O   -0.253471
    10  H    0.343256
    11  H    0.132116
    12  H    0.145056
    13  H    0.116773
    14  H    0.139718
    15  H    0.341919
    16  O   -0.495133
    17  C    0.075028
    18  C   -0.288520
    19  Br   0.026469
    20  C    0.125310
    21  O   -0.480320
    22  N    0.292588
    23  O   -0.251995
    24  O   -0.223615
    25  H    0.354307
    26  H    0.137511
    27  H    0.148968
    28  H    0.125846
    29  H    0.138884
    30  H    0.331772
 Sum of Mulliken charges =   0.00000

 Dipole moment (field-independent basis, Debye):
    X=              0.5898    Y=             -1.7771    Z=             -0.0094  Tot=              1.8724
  Exact polarizability: 148.187   0.253 131.201   2.407   6.631 118.336
 Approx polarizability: 151.915   4.459 167.977   9.911  19.891 156.761
   1 Symmetry operations used in ECPInt.
 ECPInt:  NShTT=   10440 NPrTT=   45474 LenC2=    9562 LenP2D=   27649.
 LDataN:  DoStor=T MaxTD1= 6 Len=  172
 Calling FoFJK, ICntrl=    100127 FMM=F ISym2X=0 I1Cent= 0 IOpClX= 0 NMat=1 NMatS=1 NMatT=0.
 Full mass-weighted force constant matrix:
 Low frequencies ---   -4.1903    0.0056    0.0078    0.0107    0.6441   10.2630
 Low frequencies ---   23.2187   28.4019   44.0589
 Diagonal vibrational polarizability:

                      1                      2                      3
                      A                      A                      A
 Frequencies --     22.9025                28.0696                43.9742
 Red. masses --     12.8673                10.2972                10.4171
 Frc consts  --      0.0040                 0.0048                 0.0119
 IR Inten    --      0.4560                 1.1987                 1.2820

                      4                      5                      6
                      A                      A                      A
 Frequencies --     49.8121                68.4780                74.4641
 Red. masses --     10.7171                 8.3452                 9.9429
 Frc consts  --      0.0157                 0.0231                 0.0325
 IR Inten    --      3.6583                 1.2748                 2.6129

                      7                      8                      9
                      A                      A                      A
 Frequencies --    107.0166               121.6383               149.6105
 Red. masses --     12.8183                11.7207                 5.8663
 Frc consts  --      0.0865                 0.1022                 0.0774
 IR Inten    --      0.1596                 0.3826                 1.7070

                     10                     11                     12
                      A                      A                      A
 Frequencies --    157.5608               180.1213               194.4147
 Red. masses --      5.1909                 4.8302                 5.6071
 Frc consts  --      0.0759                 0.0923                 0.1249
 IR Inten    --      1.9266                 4.0380                 2.1523

                     13                     14                     15
                      A                      A                      A
 Frequencies --    197.8833               206.8213               214.9536
 Red. masses --      4.8002                 7.3509                 7.8642
 Frc consts  --      0.1107                 0.1853                 0.2141
 IR Inten    --      5.4449                 3.7174                 2.5977

                     16                     17                     18
                      A                      A                      A
 Frequencies --    228.3171               245.1886               259.1236
 Red. masses --      3.9288                 7.7740                 7.8502
 Frc consts  --      0.1207                 0.2754                 0.3106
 IR Inten    --      2.3121                 4.5083                 3.7724

                     19                     20                     21
                      A                      A                      A
 Frequencies --    294.3217               307.6896               342.5979
 Red. masses --      4.0596                 3.8474                 9.9950
 Frc consts  --      0.2072                 0.2146                 0.6912
 IR Inten    --      1.8436                 1.1306                 4.8096

                     22                     23                     24
                      A                      A                      A
 Frequencies --    346.0104               372.8372               382.3541
 Red. masses --      4.6089                 3.4253                 6.1728
 Frc consts  --      0.3251                 0.2805                 0.5317
 IR Inten    --      8.1187                 0.3870                 7.8460

                     25                     26                     27
                      A                      A                      A
 Frequencies --    384.4383               394.0670               472.4702
 Red. masses --      2.5955                 5.6351                 6.0311
 Frc consts  --      0.2260                 0.5156                 0.7932
 IR Inten    --      3.0746                 1.0639                 3.5558

                     28                     29                     30
                      A                      A                      A
 Frequencies --    530.5769               547.9225               567.2009
 Red. masses --      1.2185                 1.2576                 2.8967
 Frc consts  --      0.2021                 0.2224                 0.5491
 IR Inten    --    248.0386               102.7655                82.9901

                     31                     32                     33
                      A                      A                      A
 Frequencies --    606.2152               614.9560               688.9132
 Red. masses --      4.3680                 3.3739                 1.6097
 Frc consts  --      0.9458                 0.7518                 0.4501
 IR Inten    --     24.0177                33.3479               150.0276

                     34                     35                     36
                      A                      A                      A
 Frequencies --    714.6185               730.3122               768.2285
 Red. masses --      2.3914                 1.2428                 3.7990
 Frc consts  --      0.7195                 0.3905                 1.3210
 IR Inten    --    157.2578                87.2521                33.7017

                     37                     38                     39
                      A                      A                      A
 Frequencies --    870.2880               872.4779               929.8205
 Red. masses --      3.9657                 3.8248                 3.4634
 Frc consts  --      1.7697                 1.7154                 1.7642
 IR Inten    --      8.9685                 8.5764                18.2740

                     40                     41                     42
                      A                      A                      A
 Frequencies --    937.0878               941.3370               954.5591
 Red. masses --      3.0828                 4.7310                 2.1716
 Frc consts  --      1.5950                 2.4700                 1.1658
 IR Inten    --     44.5404                31.1715                40.4805

                     43                     44                     45
                      A                      A                      A
 Frequencies --    967.0933               981.3070              1104.5681
 Red. masses --      2.8579                 3.9301                 1.8672
 Frc consts  --      1.5749                 2.2298                 1.3422
 IR Inten    --     13.6479                26.1323                 9.5996

                     46                     47                     48
                      A                      A                      A
 Frequencies --   1115.4107              1139.9455              1147.7233
 Red. masses --      1.9165                 5.5743                 5.5766
 Frc consts  --      1.4049                 4.2678                 4.3281
 IR Inten    --      6.5474                12.3798                10.8656

                     49                     50                     51
                      A                      A                      A
 Frequencies --   1164.1760              1173.0588              1187.3914
 Red. masses --      2.6133                 3.3392                 4.5437
 Frc consts  --      2.0868                 2.7073                 3.7744
 IR Inten    --    106.5445               185.3177                43.2010

                     52                     53                     54
                      A                      A                      A
 Frequencies --   1193.4089              1278.1887              1289.7551
 Red. masses --      2.4427                 1.3272                 1.5106
 Frc consts  --      2.0497                 1.2775                 1.4805
 IR Inten    --      1.7837                47.8878                36.2225

                     55                     56                     57
                      A                      A                      A
 Frequencies --   1297.5771              1300.3425              1387.5896
 Red. masses --      1.2475                 1.2928                 1.2690
 Frc consts  --      1.2376                 1.2880                 1.4396
 IR Inten    --     19.8077                12.2482                 5.8744

                     58                     59                     60
                      A                      A                      A
 Frequencies --   1389.0364              1416.1503              1427.3087
 Red. masses --      1.2480                 1.1613                 1.3505
 Frc consts  --      1.4188                 1.3722                 1.6210
 IR Inten    --      7.4352                26.9413                 4.4786

                     61                     62                     63
                      A                      A                      A
 Frequencies --   1435.3280              1442.2565              1464.3500
 Red. masses --      1.4013                 1.2022                 1.2478
 Frc consts  --      1.7009                 1.4734                 1.5765
 IR Inten    --      3.1541                28.0007                46.4603

                     64                     65                     66
                      A                      A                      A
 Frequencies --   1466.6870              1485.6352              1497.7190
 Red. masses --      1.2534                 1.1560                 1.3506
 Frc consts  --      1.5886                 1.5033                 1.7849
 IR Inten    --    134.0042                22.7194                34.8364

                     67                     68                     69
                      A                      A                      A
 Frequencies --   1499.7740              1504.0712              1512.1513
 Red. masses --      1.2785                 1.4856                 2.1379
 Frc consts  --      1.6944                 1.9801                 2.8802
 IR Inten    --     36.7956                18.2037               114.9887

                     70                     71                     72
                      A                      A                      A
 Frequencies --   1520.6213              1753.7497              1771.5511
 Red. masses --      2.4046                13.0721                13.6629
 Frc consts  --      3.2759                23.6882                25.2638
 IR Inten    --     66.6838                98.0378               320.5554

                     73                     74                     75
                      A                      A                      A
 Frequencies --   3014.0372              3020.8394              3077.3872
 Red. masses --      1.0721                 1.0692                 1.0632
 Frc consts  --      5.7385                 5.7486                 5.9322
 IR Inten    --     36.6178                24.6324                 7.0288

                     76                     77                     78
                      A                      A                      A
 Frequencies --   3081.1333              3135.2067              3147.4629
 Red. masses --      1.0608                 1.1011                 1.1112
 Frc consts  --      5.9334                 6.3770                 6.4858
 IR Inten    --     16.6480                 5.7475                 5.0277

                     79                     80                     81
                      A                      A                      A
 Frequencies --   3155.4160              3155.5194              3639.3281
 Red. masses --      1.1080                 1.0991                 1.0679
 Frc consts  --      6.4999                 6.4479                 8.3337
 IR Inten    --      1.5239                 4.0149               424.2160

                     82                     83                     84
                      A                      A                      A
 Frequencies --   3655.6303              3658.1970              3741.3413
 Red. masses --      1.0654                 1.0653                 1.0641
 Frc consts  --      8.3888                 8.3995                 8.7756
 IR Inten    --    160.1778               133.1135                91.0550

                           ! Non-Optimized Parameters !
 Normal termination of Gaussian 16 at Tue Aug  9 22:46:21 2022.
