 Gaussian 16, Revision B.01,
 Gaussian 16:  ES64L-G16RevB.01 20-Dec-2017

 ----------------------------------------------------------------------
 #T wB97XD/def2svpp opt=tight freq int(grid=ultrafine) scf=(verytight,q
 c)
 ----------------------------------------------------------------------
 -----
 dimer
 -----
 Symbolic Z-matrix:
 Charge =  0 Multiplicity = 1

 SCF Done:  E(RwB97XD) =  -924.441022609     a.u. after    7 cycles
 SCF Done:  E(RwB97XD) =  -924.443194854     a.u. after    9 cycles
 SCF Done:  E(RwB97XD) =  -924.436943255     a.u. after   11 cycles
 SCF Done:  E(RwB97XD) =  -924.441718795     a.u. after   12 cycles
 SCF Done:  E(RwB97XD) =  -924.444448472     a.u. after    3 cycles
 SCF Done:  E(RwB97XD) =  -924.445608631     a.u. after    8 cycles
 SCF Done:  E(RwB97XD) =  -924.446230132     a.u. after    8 cycles
 SCF Done:  E(RwB97XD) =  -924.446554201     a.u. after    8 cycles
 SCF Done:  E(RwB97XD) =  -924.446904574     a.u. after    7 cycles
 SCF Done:  E(RwB97XD) =  -924.446852019     a.u. after   10 cycles
 SCF Done:  E(RwB97XD) =  -924.447844143     a.u. after    2 cycles
 SCF Done:  E(RwB97XD) =  -924.447844162     a.u. after    2 cycles
 SCF Done:  E(RwB97XD) =  -924.447844168     a.u. after    2 cycles
 SCF Done:  E(RwB97XD) =  -924.447844169     a.u. after    2 cycles
 SCF Done:  E(RwB97XD) =  -924.447844171     a.u. after    2 cycles
 SCF Done:  E(RwB97XD) =  -924.447844171     a.u. after    2 cycles
 SCF Done:  E(RwB97XD) =  -924.447844172     a.u. after    2 cycles
 SCF Done:  E(RwB97XD) =  -924.447844172     a.u. after    2 cycles
 SCF Done:  E(RwB97XD) =  -924.447844172     a.u. after    2 cycles
 Optimization completed.
    -- Stationary point found.
 Normal termination of Gaussian 16 at Thu Sep  1 12:11:11 2022.

 ---------------------------------------------------------------------
 #T Geom=AllCheck Guess=TCheck SCRF=Check GenChk RwB97XD/def2SVPP Freq
 ---------------------------------------------------------------------
 Structure from the checkpoint file:  "/scratch/user/peterchao1/peterchao1/6219203_1662041013000000074630433/Gau-122293.chk"
 -----
 dimer
 -----
 Charge =  0 Multiplicity = 1

                         Standard orientation:
 ---------------------------------------------------------------------
 Center     Atomic      Atomic             Coordinates (Angstroms)
 Number     Number       Type             X           Y           Z
 ---------------------------------------------------------------------
      1          6           0        1.913935    2.369716    0.491930
      2          6           0        1.820212    1.160447   -0.437135
      3          6           0        2.686784   -0.069684   -0.100118
      4          6           0        2.444352   -0.547574    1.343709
      5          8           0        1.099206   -0.900327    1.590034
      6          6           0        2.330948   -1.215747   -1.075974
      7          8           0        1.033491   -1.742540   -0.882386
      8          6           0        4.176889    0.273919   -0.284915
      9          8           0        5.057014   -0.808491   -0.096596
     10          1           0        2.937525    2.776216    0.562108
     11          1           0        1.570244    2.131881    1.512893
     12          1           0        1.265530    3.178816    0.114965
     13          1           0        2.060470    1.473719   -1.470877
     14          1           0        0.772539    0.830386   -0.455563
     15          1           0        2.716313    0.240250    2.067502
     16          1           0        3.091325   -1.423650    1.550346
     17          1           0        0.843146   -1.459616    0.816127
     18          1           0        3.039910   -2.045167   -0.926987
     19          1           0        2.453553   -0.859394   -2.118021
     20          1           0        0.350785   -1.151605   -1.283706
     21          1           0        4.449815    1.121232    0.375242
     22          1           0        4.333821    0.614156   -1.323038
     23          1           0        5.166561   -0.975204    0.847721
     24          6           0       -4.472268   -1.847781    0.596398
     25          6           0       -4.311053   -0.388309    0.169311
     26          6           0       -2.865251    0.103999   -0.057130
     27          6           0       -2.058439   -0.086391    1.249737
     28          8           0       -0.956538    0.784799    1.362302
     29          6           0       -2.266565   -0.665947   -1.252417
     30          8           0       -1.009568   -0.197921   -1.690443
     31          6           0       -2.940852    1.608758   -0.401885
     32          8           0       -1.684611    2.171259   -0.723500
     33          1           0       -4.085625   -2.549187   -0.162152
     34          1           0       -5.539480   -2.083123    0.745243
     35          1           0       -3.954417   -2.059267    1.547433
     36          1           0       -4.776379    0.259162    0.935643
     37          1           0       -4.888835   -0.220207   -0.758510
     38          1           0       -1.725217   -1.138210    1.331295
     39          1           0       -2.740014    0.103264    2.103184
     40          1           0       -0.135560    0.264960    1.544904
     41          1           0       -2.989612   -0.623295   -2.093139
     42          1           0       -2.130804   -1.729649   -0.993017
     43          1           0       -1.024421    0.783582   -1.625654
     44          1           0       -3.404390    2.156071    0.443956
     45          1           0       -3.590570    1.754293   -1.282433
     46          1           0       -1.130323    2.002924    0.070188
 ---------------------------------------------------------------------

 SCF Done:  E(RwB97XD) =  -924.447844172     a.u. after    1 cycles

 The electronic state is 1-A.
 Alpha  occ. eigenvalues --  -19.26073 -19.25793 -19.25776 -19.25383 -19.24911
 Alpha  occ. eigenvalues --  -19.24845 -10.34543 -10.34451 -10.34408 -10.34381
 Alpha  occ. eigenvalues --  -10.34379 -10.33396 -10.31469 -10.30681 -10.30527
 Alpha  occ. eigenvalues --  -10.29381 -10.29291 -10.28584  -1.13964  -1.12899
 Alpha  occ. eigenvalues --   -1.12013  -1.11540  -1.09949  -1.09593  -0.92358
 Alpha  occ. eigenvalues --   -0.91391  -0.83239  -0.82825  -0.77378  -0.77105
 Alpha  occ. eigenvalues --   -0.76874  -0.76282  -0.72272  -0.71930  -0.66496
 Alpha  occ. eigenvalues --   -0.65654  -0.63647  -0.62419  -0.61410  -0.60713
 Alpha  occ. eigenvalues --   -0.58679  -0.57623  -0.56096  -0.55500  -0.54635
 Alpha  occ. eigenvalues --   -0.54531  -0.52950  -0.52801  -0.51967  -0.51685
 Alpha  occ. eigenvalues --   -0.50752  -0.50125  -0.49745  -0.48977  -0.48403
 Alpha  occ. eigenvalues --   -0.47883  -0.47392  -0.47233  -0.46061  -0.44946
 Alpha  occ. eigenvalues --   -0.44432  -0.43834  -0.42525  -0.42261  -0.41942
 Alpha  occ. eigenvalues --   -0.40769  -0.40123  -0.39034  -0.37830  -0.36859
 Alpha  occ. eigenvalues --   -0.35178  -0.34964  -0.34504  -0.34072
 Alpha virt. eigenvalues --    0.11985   0.12450   0.12970   0.14953   0.15418
 Alpha virt. eigenvalues --    0.15489   0.16171   0.17051   0.17591   0.18635
 Alpha virt. eigenvalues --    0.19011   0.19627   0.20089   0.20863   0.21076

 Mulliken charges:
               1
     1  C   -0.339303
     2  C   -0.215664
     3  C   -0.332126
     4  C    0.060071
     5  O   -0.535793
     6  C    0.078450
     7  O   -0.548422
     8  C    0.055700
     9  O   -0.483366
    10  H    0.121023
    11  H    0.131662
    12  H    0.136736
    13  H    0.106400
    14  H    0.050739
    15  H    0.111022
    16  H    0.085466
    17  H    0.344350
    18  H    0.118937
    19  H    0.099362
    20  H    0.368800
    21  H    0.102557
    22  H    0.105192
    23  H    0.322169
    24  C   -0.324930
    25  C   -0.197027
    26  C   -0.367769
    27  C    0.063632
    28  O   -0.547377
    29  C    0.088721
    30  O   -0.530708
    31  C    0.065416
    32  O   -0.528459
    33  H    0.129009
    34  H    0.128290
    35  H    0.128266
    36  H    0.110212
    37  H    0.108030
    38  H    0.111539
    39  H    0.099010
    40  H    0.364965
    41  H    0.094993
    42  H    0.113862
    43  H    0.361188
    44  H    0.105618
    45  H    0.106873
    46  H    0.372685
 Sum of Mulliken charges =  -0.00000

 Dipole moment (field-independent basis, Debye):
    X=             -1.2340    Y=              0.2306    Z=              1.2622  Tot=              1.7802
  Exact polarizability: 171.830   1.388 139.893  -0.279  -0.649 131.715
 Approx polarizability: 161.926  -0.485 153.418   0.544  -1.107 151.450
   1 Symmetry operations used in ECPInt.
 ECPInt:  NShTT=   13530 NPrTT=   54274 LenC2=   12768 LenP2D=   35739.
 LDataN:  DoStor=T MaxTD1= 6 Len=  172
 Calling FoFJK, ICntrl=    100127 FMM=F ISym2X=0 I1Cent= 0 IOpClX= 0 NMat=1 NMatS=1 NMatT=0.
 Full mass-weighted force constant matrix:
 Low frequencies ---   -2.9263   -0.0002    0.0003    0.0015    2.1115    5.5811
 Low frequencies ---   32.4560   40.6999   60.4558
 Diagonal vibrational polarizability:

                      1                      2                      3
                      A                      A                      A
 Frequencies --     32.4448                40.6965                60.4503
 Red. masses --      4.1229                 4.2985                 3.5099
 Frc consts  --      0.0026                 0.0042                 0.0076
 IR Inten    --      0.4553                 0.6692                 0.5222

                      4                      5                      6
                      A                      A                      A
 Frequencies --     78.3430                89.7410                91.5779
 Red. masses --      3.4493                 2.7848                 3.5085
 Frc consts  --      0.0125                 0.0132                 0.0173
 IR Inten    --      3.3597                 0.9136                 0.5355

                      7                      8                      9
                      A                      A                      A
 Frequencies --    104.7399               112.7693               139.2904
 Red. masses --      3.0182                 3.4160                 3.0281
 Frc consts  --      0.0195                 0.0256                 0.0346
 IR Inten    --      1.7972                 1.6829                 0.6705

                     10                     11                     12
                      A                      A                      A
 Frequencies --    149.2957               162.2771               210.9375
 Red. masses --      2.1987                 4.0375                 1.9990
 Frc consts  --      0.0289                 0.0626                 0.0524
 IR Inten    --      3.2359                 1.8596                 0.4868

                     13                     14                     15
                      A                      A                      A
 Frequencies --    222.4529               227.6931               244.1314
 Red. masses --      3.2858                 1.7774                 3.5975
 Frc consts  --      0.0958                 0.0543                 0.1263
 IR Inten    --      0.1635                 1.9522                20.5244

                     16                     17                     18
                      A                      A                      A
 Frequencies --    252.4152               261.0861               279.6026
 Red. masses --      4.4372                 2.0231                 1.5637
 Frc consts  --      0.1666                 0.0813                 0.0720
 IR Inten    --     21.4540                19.5199                 0.4451

                     19                     20                     21
                      A                      A                      A
 Frequencies --    289.8003               300.9543               320.8585
 Red. masses --      3.1841                 1.3948                 2.8434
 Frc consts  --      0.1576                 0.0744                 0.1725
 IR Inten    --     10.9432                95.2265                13.0942

                     22                     23                     24
                      A                      A                      A
 Frequencies --    322.7799               328.7318               339.0846
 Red. masses --      2.2200                 3.3822                 3.4498
 Frc consts  --      0.1363                 0.2153                 0.2337
 IR Inten    --     39.8202                 3.8589                14.1951

                     25                     26                     27
                      A                      A                      A
 Frequencies --    363.6649               374.5993               389.7231
 Red. masses --      3.6643                 2.0415                 3.4467
 Frc consts  --      0.2855                 0.1688                 0.3084
 IR Inten    --      0.9166                 2.3506                 2.2861

                     28                     29                     30
                      A                      A                      A
 Frequencies --    407.1761               411.8135               457.2236
 Red. masses --      3.2179                 3.6735                 2.7743
 Frc consts  --      0.3143                 0.3671                 0.3417
 IR Inten    --      1.8068                 0.3019                 3.0462

                     31                     32                     33
                      A                      A                      A
 Frequencies --    460.5943               479.7970               545.2004
 Red. masses --      3.1567                 3.0234                 2.9259
 Frc consts  --      0.3946                 0.4101                 0.5124
 IR Inten    --      0.7605                 4.0317                 2.5889

                     34                     35                     36
                      A                      A                      A
 Frequencies --    597.7931               631.6081               675.8905
 Red. masses --      3.2390                 4.0219                 1.0854
 Frc consts  --      0.6820                 0.9453                 0.2921
 IR Inten    --      1.4074                19.1983               158.7875

                     37                     38                     39
                      A                      A                      A
 Frequencies --    700.2250               745.2507               785.8878
 Red. masses --      1.1108                 2.5363                 2.1028
 Frc consts  --      0.3209                 0.8300                 0.7652
 IR Inten    --     55.3072                14.5588                63.6349

                     40                     41                     42
                      A                      A                      A
 Frequencies --    789.4152               795.7187               809.3554
 Red. masses --      1.4110                 1.2001                 1.1242
 Frc consts  --      0.5181                 0.4477                 0.4339
 IR Inten    --     58.8049                28.0932               118.0430

                     43                     44                     45
                      A                      A                      A
 Frequencies --    902.6956               915.0285               932.4623
 Red. masses --      1.7038                 1.2180                 1.6417
 Frc consts  --      0.8180                 0.6009                 0.8410
 IR Inten    --     12.7494               195.5003                 3.6964

                     46                     47                     48
                      A                      A                      A
 Frequencies --    944.5828               956.7772               963.1569
 Red. masses --      1.5137                 1.6027                 1.6608
 Frc consts  --      0.7957                 0.8644                 0.9077
 IR Inten    --     17.0227                43.4163                38.2559

                     49                     50                     51
                      A                      A                      A
 Frequencies --    971.3030               982.7427              1005.9458
 Red. masses --      1.4911                 1.3507                 2.3330
 Frc consts  --      0.8289                 0.7686                 1.3909
 IR Inten    --      3.5862                 5.4204                26.4504

                     52                     53                     54
                      A                      A                      A
 Frequencies --   1016.7434              1053.4513              1064.2127
 Red. masses --      1.7041                 1.6556                 1.5896
 Frc consts  --      1.0379                 1.0825                 1.0607
 IR Inten    --     11.4415                 6.9342                 5.4097

                     55                     56                     57
                      A                      A                      A
 Frequencies --   1073.1991              1088.1752              1112.7989
 Red. masses --      2.1947                 2.4304                 4.7216
 Frc consts  --      1.4893                 1.6956                 3.4449
 IR Inten    --      6.3573                 4.1879                33.9069

                     58                     59                     60
                      A                      A                      A
 Frequencies --   1126.7382              1131.9108              1139.0147
 Red. masses --      3.8936                 4.0813                 4.7701
 Frc consts  --      2.9124                 3.0809                 3.6461
 IR Inten    --     23.8954               122.9886                36.5226

                     61                     62                     63
                      A                      A                      A
 Frequencies --   1142.6827              1145.1465              1179.4723
 Red. masses --      3.5853                 4.4146                 2.6311
 Frc consts  --      2.7582                 3.4108                 2.1565
 IR Inten    --    184.9718                10.8870               155.0269

                     64                     65                     66
                      A                      A                      A
 Frequencies --   1182.7486              1198.9207              1217.2525
 Red. masses --      1.5668                 1.8890                 1.5454
 Frc consts  --      1.2914                 1.5998                 1.3491
 IR Inten    --     27.8048                31.6234                 8.4603

                     67                     68                     69
                      A                      A                      A
 Frequencies --   1222.9426              1240.8231              1258.2564
 Red. masses --      2.1840                 2.2590                 1.1933
 Frc consts  --      1.9245                 2.0492                 1.1131
 IR Inten    --     25.9645                17.8542                 3.4748

                     70                     71                     72
                      A                      A                      A
 Frequencies --   1271.7713              1303.4923              1307.0828
 Red. masses --      1.1551                 1.2298                 1.3368
 Frc consts  --      1.1008                 1.2311                 1.3456
 IR Inten    --     18.7936                 6.3766                10.2833

                     73                     74                     75
                      A                      A                      A
 Frequencies --   1328.4125              1333.0905              1357.8715
 Red. masses --      1.3909                 1.2853                 1.3718
 Frc consts  --      1.4462                 1.3458                 1.4902
 IR Inten    --     11.6336                 9.0796                 8.9170

                     76                     77                     78
                      A                      A                      A
 Frequencies --   1376.3771              1388.4177              1393.2053
 Red. masses --      1.4752                 1.2648                 1.3182
 Frc consts  --      1.6466                 1.4366                 1.5075
 IR Inten    --      3.5506                 0.5446                 1.4397

                     79                     80                     81
                      A                      A                      A
 Frequencies --   1395.6692              1406.2186              1406.9711
 Red. masses --      1.3637                 1.2814                 1.2472
 Frc consts  --      1.5650                 1.4929                 1.4546
 IR Inten    --      1.2517                 2.9732                10.1154

                     82                     83                     84
                      A                      A                      A
 Frequencies --   1412.1488              1432.9648              1438.1854
 Red. masses --      1.2745                 1.3647                 1.3492
 Frc consts  --      1.4974                 1.6510                 1.6442
 IR Inten    --      5.8501                47.4901                 3.7096

                     85                     86                     87
                      A                      A                      A
 Frequencies --   1438.3473              1446.3666              1449.5519
 Red. masses --      1.3294                 1.3798                 1.2886
 Frc consts  --      1.6205                 1.7007                 1.5953
 IR Inten    --     11.1596                26.0047                14.5070

                     88                     89                     90
                      A                      A                      A
 Frequencies --   1484.0542              1486.4532              1489.9104
 Red. masses --      1.1796                 1.1225                 1.1126
 Frc consts  --      1.5307                 1.4613                 1.4551
 IR Inten    --     18.5516                11.6112                 6.2181

                     91                     92                     93
                      A                      A                      A
 Frequencies --   1493.3965              1498.7495              1499.5365
 Red. masses --      1.0838                 1.0752                 1.0745
 Frc consts  --      1.4242                 1.4229                 1.4236
 IR Inten    --      1.5603                21.2490                 2.7347

                     94                     95                     96
                      A                      A                      A
 Frequencies --   1501.0891              1504.0308              1505.5764
 Red. masses --      1.0633                 1.0780                 1.0961
 Frc consts  --      1.4116                 1.4368                 1.4639
 IR Inten    --      7.7497                 4.2885                33.6743

                     97                     98                     99
                      A                      A                      A
 Frequencies --   1508.6783              1509.3848              1511.5462
 Red. masses --      1.0841                 1.0782                 1.0726
 Frc consts  --      1.4539                 1.4473                 1.4439
 IR Inten    --      1.1490                11.7682                14.8813

                    100                    101                    102
                      A                      A                      A
 Frequencies --   1521.6260              1525.6458              1535.4935
 Red. masses --      1.0823                 1.0853                 1.1746
 Frc consts  --      1.4764                 1.4884                 1.6317
 IR Inten    --      4.1090                 1.5076                23.0696

                    103                    104                    105
                      A                      A                      A
 Frequencies --   1542.4526              1582.2107              2999.0720
 Red. masses --      1.1363                 1.1244                 1.0677
 Frc consts  --      1.5928                 1.6584                 5.6581
 IR Inten    --     96.3800               225.7150                56.7355

                    106                    107                    108
                      A                      A                      A
 Frequencies --   3003.1870              3010.7030              3011.6330
 Red. masses --      1.0640                 1.0670                 1.0670
 Frc consts  --      5.6539                 5.6981                 5.7020
 IR Inten    --     66.7497               144.0811                33.5952

                    109                    110                    111
                      A                      A                      A
 Frequencies --   3017.0505              3021.0602              3032.9654
 Red. masses --      1.0661                 1.0702                 1.0631
 Frc consts  --      5.7178                 5.7547                 5.7620
 IR Inten    --     37.0716                47.1918                42.6150

                    112                    113                    114
                      A                      A                      A
 Frequencies --   3039.8445              3042.2345              3042.7276
 Red. masses --      1.0407                 1.0391                 1.0725
 Frc consts  --      5.6663                 5.6660                 5.8502
 IR Inten    --     24.6440                17.2354                17.9576

                    115                    116                    117
                      A                      A                      A
 Frequencies --   3067.4367              3079.8835              3094.2186
 Red. masses --      1.1062                 1.1043                 1.1005
 Frc consts  --      6.1322                 6.1719                 6.2081
 IR Inten    --     19.2614                13.6369                28.2240

                    118                    119                    120
                      A                      A                      A
 Frequencies --   3094.8714              3098.7124              3099.0766
 Red. masses --      1.1023                 1.1023                 1.0994
 Frc consts  --      6.2209                 6.2360                 6.2214
 IR Inten    --     36.3922                30.4468                37.9474

                    121                    122                    123
                      A                      A                      A
 Frequencies --   3127.2820              3129.5357              3132.9893
 Red. masses --      1.1041                 1.1000                 1.1033
 Frc consts  --      6.3620                 6.3474                 6.3808
 IR Inten    --     15.8041                24.6871                19.1391

                    124                    125                    126
                      A                      A                      A
 Frequencies --   3133.5356              3138.0731              3171.1091
 Red. masses --      1.1043                 1.1047                 1.0908
 Frc consts  --      6.3884                 6.4094                 6.4628
 IR Inten    --     24.0920                22.5671                 6.5069

                    127                    128                    129
                      A                      A                      A
 Frequencies --   3310.4808              3387.9222              3412.6139
 Red. masses --      1.0706                 1.0695                 1.0662
 Frc consts  --      6.9131                 7.2329                 7.3157
 IR Inten    --    145.1286              2115.1964               304.6668

                    130                    131                    132
                      A                      A                      A
 Frequencies --   3465.3922              3524.8255              3794.1957
 Red. masses --      1.0668                 1.0639                 1.0665
 Frc consts  --      7.5482                 7.7883                 9.0455
 IR Inten    --    221.2573               184.3826                35.9750

 Optimization completed.
    -- Stationary point found.
 Normal termination of Gaussian 16 at Thu Sep  1 12:31:45 2022.
