 Gaussian 16, Revision B.01,
 Gaussian 16:  ES64L-G16RevB.01 20-Dec-2017

 --------------------------------------------------------------
 #T wB97XD//def2svpp Volume=tight Geom=AllCheckpoint Guess=Read
 --------------------------------------------------------------
 Structure from the checkpoint file:  "53.chk"
 -------
 Monomer
 -------
 Charge =  0 Multiplicity = 1

                         Standard orientation:
 ---------------------------------------------------------------------
 Center     Atomic      Atomic             Coordinates (Angstroms)
 Number     Number       Type             X           Y           Z
 ---------------------------------------------------------------------
      1          8           0       -2.423576   -0.152145   -0.369828
      2          6           0       -1.249854   -0.783287   -0.868739
      3          6           0       -0.006317   -0.030653   -0.390147
      4          6           0        1.241252   -0.776618   -0.900701
      5          8           0        1.389593   -2.037998   -0.310196
      6          6           0       -0.009285    1.426389   -0.917197
      7          8           0        1.160827    2.128188   -0.615750
      8          6           0        0.083298    0.045589    1.144631
      9          8           0       -1.052459    0.205019    1.808312
     10          8           0        1.146392    0.031914    1.716798
     11          1           0       -3.199546   -0.697655   -0.554526
     12          1           0       -1.264470   -0.780377   -1.974743
     13          1           0       -1.183673   -1.831501   -0.524822
     14          1           0        2.123772   -0.136079   -0.739995
     15          1           0        1.140063   -0.937506   -1.988163
     16          1           0        1.727706   -1.895859    0.586976
     17          1           0       -0.912829    1.947593   -0.543396
     18          1           0       -0.079577    1.397974   -2.018466
     19          1           0        1.342900    2.074692    0.334831
     20          1           0       -1.815133    0.170382    1.180544
 ---------------------------------------------------------------------

 SCF Done:  E(RwB97XD) =  -572.029464113     A.U. after    1 cycles

 The electronic state is 1-A.
 Alpha  occ. eigenvalues --  -19.30935 -19.29640 -19.25951 -19.25329 -19.24858
 Alpha  occ. eigenvalues --  -10.43678 -10.37520 -10.35762 -10.34550 -10.33336
 Alpha  occ. eigenvalues --   -1.20563  -1.16446  -1.12881  -1.12093  -1.10975
 Alpha  occ. eigenvalues --   -0.92113  -0.79160  -0.77566  -0.73859  -0.71184
 Alpha  occ. eigenvalues --   -0.65664  -0.63139  -0.61582  -0.59507  -0.56447
 Alpha  occ. eigenvalues --   -0.55290  -0.54388  -0.53548  -0.52517  -0.51450
 Alpha  occ. eigenvalues --   -0.49655  -0.48482  -0.45664  -0.42738  -0.41700
 Alpha  occ. eigenvalues --   -0.41185  -0.40208  -0.37819  -0.36041  -0.35149
 Alpha virt. eigenvalues --    0.07440   0.09934   0.13881   0.14877   0.15815
 Alpha virt. eigenvalues --    0.19038   0.20228   0.21162   0.22485   0.23036
 Alpha virt. eigenvalues --    0.23308   0.24730   0.27234   0.28080   0.28627

 Mulliken charges:
               1
     1  O   -0.509663
     2  C    0.046264
     3  C   -0.431344
     4  C    0.082414
     5  O   -0.495789
     6  C    0.099157
     7  O   -0.481616
     8  C    0.235105
     9  O   -0.359650
    10  O   -0.255285
    11  H    0.347546
    12  H    0.112273
    13  H    0.137587
    14  H    0.127456
    15  H    0.102553
    16  H    0.336525
    17  H    0.113484
    18  H    0.110627
    19  H    0.333426
    20  H    0.348932
 Sum of Mulliken charges =  -0.00000

 Dipole moment (field-independent basis, Debye):
    X=             -4.0436    Y=             -1.0710    Z=             -2.2731  Tot=              4.7608
 Evaluate density.
 Using the total density.
 Monte-Carlo method of calculating molar volume:
 based on  0.001 e/bohr**3 density envelope.
 Number of points per bohr**3 =  100 CutOff= 1.00D-04
 Using the SCF density.
 There are      1777 points.  Will hold      1777 in memory.
 LenV=  1048239387 MDV=  1048576000.
 Box volume = 5616.660 fraction occupied=0.197
 Integrated density= 9.1549532259557452D+01 error= 1.1549532259557452D+01

 Normal termination of Gaussian 16 at Thu Sep 29 08:46:11 2022.
