 Gaussian 16, Revision B.01,
 Gaussian 16:  ES64L-G16RevB.01 20-Dec-2017

 ----------------------------------------------------------------------
 #T wB97XD/def2svpp opt=tight freq int(grid=ultrafine) scf=(verytight,q
 c)
 ----------------------------------------------------------------------
 --------------
 Comment gs min
 --------------
 Symbolic Z-matrix:
 Charge =  0 Multiplicity = 1

 SCF Done:  E(RwB97XD) =  -572.019743622     a.u. after    8 cycles
 SCF Done:  E(RwB97XD) =  -572.026203713     a.u. after   11 cycles
 SCF Done:  E(RwB97XD) =  -572.026632173     a.u. after    9 cycles
 SCF Done:  E(RwB97XD) =  -572.027173828     a.u. after   11 cycles
 SCF Done:  E(RwB97XD) =  -572.026172435     a.u. after   13 cycles
 SCF Done:  E(RwB97XD) =  -572.028819693     a.u. after    8 cycles
 SCF Done:  E(RwB97XD) =  -572.029111876     a.u. after   10 cycles
 SCF Done:  E(RwB97XD) =  -572.029071234     a.u. after   13 cycles
 SCF Done:  E(RwB97XD) =  -572.029344741     a.u. after    9 cycles
 SCF Done:  E(RwB97XD) =  -572.029394657     a.u. after    7 cycles
 SCF Done:  E(RwB97XD) =  -572.029463648     a.u. after    3 cycles
 SCF Done:  E(RwB97XD) =  -572.029464011     a.u. after    3 cycles
 SCF Done:  E(RwB97XD) =  -572.029464127     a.u. after    2 cycles
 SCF Done:  E(RwB97XD) =  -572.029464105     a.u. after    2 cycles
 SCF Done:  E(RwB97XD) =  -572.029464104     a.u. after    2 cycles
 SCF Done:  E(RwB97XD) =  -572.029464110     a.u. after    2 cycles
 SCF Done:  E(RwB97XD) =  -572.029464140     a.u. after    2 cycles
 SCF Done:  E(RwB97XD) =  -572.029464110     a.u. after    2 cycles
 SCF Done:  E(RwB97XD) =  -572.029464113     a.u. after    2 cycles
 Optimization completed.
    -- Stationary point found.

 1\1\GINC-C244\FOpt\RwB97XD\def2SVPP\C5H10O5\PETERCHAO1\04-Aug-2022\0\\
 #T wB97XD/def2svpp opt=tight freq int(grid=ultrafine) scf=(verytight,q
 c)\\Comment gs min\\0,1\O,2.8371019344,0.1446996402,1.1881129347\C,2.3
 720261717,-0.0961863981,-0.134971786\C,2.9867885975,0.9202284214,-1.09
 97825459\C,2.5065327275,0.5904472427,-2.5260213072\O,3.0104942756,-0.6
 306810877,-2.9914774453\C,2.5701423999,2.3626764823,-0.7170123832\O,2.
 9999861,3.3262816777,-1.6331188623\C,4.5255477897,0.8802036993,-1.0977
 764695\O,5.1221438386,0.6646915231,0.0656083758\O,5.1646180923,1.10493

 Normal termination of Gaussian 16 at Thu Aug  4 16:33:15 2022.

 ---------------------------------------------------------------------
 #T Geom=AllCheck Guess=TCheck SCRF=Check GenChk RwB97XD/def2SVPP Freq
 ---------------------------------------------------------------------
 Structure from the checkpoint file:  "/scratch/user/peterchao1/peterchao1/6097833_1659647604000000861152458/Gau-193379.chk"
 --------------
 Comment gs min
 --------------
 Charge =  0 Multiplicity = 1

                         Standard orientation:
 ---------------------------------------------------------------------
 Center     Atomic      Atomic             Coordinates (Angstroms)
 Number     Number       Type             X           Y           Z
 ---------------------------------------------------------------------
      1          8           0        2.423576    0.152144   -0.369828
      2          6           0        1.249854    0.783286   -0.868739
      3          6           0        0.006317    0.030653   -0.390147
      4          6           0       -1.241252    0.776619   -0.900701
      5          8           0       -1.389592    2.037999   -0.310196
      6          6           0        0.009284   -1.426389   -0.917197
      7          8           0       -1.160828   -2.128187   -0.615750
      8          6           0       -0.083298   -0.045589    1.144631
      9          8           0        1.052459   -0.205020    1.808312
     10          8           0       -1.146392   -0.031913    1.716798
     11          1           0        3.199546    0.697653   -0.554526
     12          1           0        1.264470    0.780376   -1.974743
     13          1           0        1.183674    1.831500   -0.524822
     14          1           0       -2.123772    0.136080   -0.739995
     15          1           0       -1.140063    0.937507   -1.988163
     16          1           0       -1.727705    1.895860    0.586976
     17          1           0        0.912828   -1.947593   -0.543396
     18          1           0        0.079576   -1.397974   -2.018466
     19          1           0       -1.342901   -2.074691    0.334831
     20          1           0        1.815133   -0.170383    1.180544
 ---------------------------------------------------------------------

 SCF Done:  E(RwB97XD) =  -572.029464113     a.u. after    1 cycles

 The electronic state is 1-A.
 Alpha  occ. eigenvalues --  -19.30935 -19.29640 -19.25951 -19.25329 -19.24858
 Alpha  occ. eigenvalues --  -10.43678 -10.37520 -10.35762 -10.34550 -10.33336
 Alpha  occ. eigenvalues --   -1.20563  -1.16446  -1.12881  -1.12093  -1.10975
 Alpha  occ. eigenvalues --   -0.92113  -0.79160  -0.77566  -0.73859  -0.71184
 Alpha  occ. eigenvalues --   -0.65664  -0.63139  -0.61582  -0.59507  -0.56447
 Alpha  occ. eigenvalues --   -0.55290  -0.54388  -0.53548  -0.52517  -0.51450
 Alpha  occ. eigenvalues --   -0.49655  -0.48482  -0.45664  -0.42738  -0.41700
 Alpha  occ. eigenvalues --   -0.41185  -0.40208  -0.37819  -0.36041  -0.35149
 Alpha virt. eigenvalues --    0.07440   0.09934   0.13881   0.14877   0.15815
 Alpha virt. eigenvalues --    0.19038   0.20228   0.21162   0.22485   0.23036
 Alpha virt. eigenvalues --    0.23308   0.24730   0.27234   0.28080   0.28627

 Mulliken charges:
               1
     1  O   -0.509663
     2  C    0.046264
     3  C   -0.431344
     4  C    0.082413
     5  O   -0.495789
     6  C    0.099157
     7  O   -0.481616
     8  C    0.235105
     9  O   -0.359651
    10  O   -0.255285
    11  H    0.347546
    12  H    0.112273
    13  H    0.137587
    14  H    0.127456
    15  H    0.102553
    16  H    0.336525
    17  H    0.113484
    18  H    0.110627
    19  H    0.333426
    20  H    0.348932
 Sum of Mulliken charges =  -0.00000

 Dipole moment (field-independent basis, Debye):
    X=              4.0436    Y=              1.0710    Z=             -2.2731  Tot=              4.7608
  Exact polarizability:  70.080   0.427  58.078  -2.859  -0.649  63.675
 Approx polarizability:  78.856   0.292  62.761  -4.570  -0.657  70.917
   1 Symmetry operations used in ECPInt.
 ECPInt:  NShTT=    3240 NPrTT=   13040 LenC2=    3204 LenP2D=   10030.
 LDataN:  DoStor=T MaxTD1= 6 Len=  172
 Calling FoFJK, ICntrl=    100127 FMM=F ISym2X=0 I1Cent= 0 IOpClX= 0 NMat=1 NMatS=1 NMatT=0.
 Full mass-weighted force constant matrix:
 Low frequencies ---  -10.0318   -9.0752   -3.0389   -0.0008   -0.0006   -0.0004
 Low frequencies ---   21.3682  110.3436  118.7884
 Diagonal vibrational polarizability:

                      1                      2                      3
                      A                      A                      A
 Frequencies --     20.2315               110.3338               118.7593
 Red. masses --      6.7036                 3.9216                 5.4221
 Frc consts  --      0.0016                 0.0281                 0.0451
 IR Inten    --     13.4137                 6.1047                18.6882

                      4                      5                      6
                      A                      A                      A
 Frequencies --    143.9238               170.6364               229.4947
 Red. masses --      3.8991                 4.5520                 2.6390
 Frc consts  --      0.0476                 0.0781                 0.0819
 IR Inten    --      1.2667                 3.7600                 8.6822

                      7                      8                      9
                      A                      A                      A
 Frequencies --    276.1877               308.9389               318.9367
 Red. masses --      2.5890                 2.0533                 2.3656
 Frc consts  --      0.1164                 0.1155                 0.1418
 IR Inten    --      5.8884                19.1057                60.2720

                     10                     11                     12
                      A                      A                      A
 Frequencies --    350.7748               369.4616               394.2347
 Red. masses --      1.9789                 1.8483                 2.6079
 Frc consts  --      0.1435                 0.1487                 0.2388
 IR Inten    --     50.0382               100.7219                12.8522

                     13                     14                     15
                      A                      A                      A
 Frequencies --    442.5230               501.4147               555.5692
 Red. masses --      3.6728                 1.1178                 4.7617
 Frc consts  --      0.4238                 0.1656                 0.8659
 IR Inten    --     30.4725               145.5674                19.5948

                     16                     17                     18
                      A                      A                      A
 Frequencies --    578.1485               647.0531               785.1749
 Red. masses --      3.7191                 4.4581                 5.7993
 Frc consts  --      0.7324                 1.0997                 2.1065
 IR Inten    --      8.9459                59.4384                 0.1114

                     19                     20                     21
                      A                      A                      A
 Frequencies --    793.0341               872.2914               899.3116
 Red. masses --      5.4031                 1.1584                 1.8194
 Frc consts  --      2.0021                 0.5193                 0.8670
 IR Inten    --      8.8869                87.8411                20.2394

                     22                     23                     24
                      A                      A                      A
 Frequencies --    954.8096               963.4766              1097.0066
 Red. masses --      1.5977                 1.6887                 3.6329
 Frc consts  --      0.8582                 0.9236                 2.5759
 IR Inten    --     11.6487                 2.2222                17.7679

                     25                     26                     27
                      A                      A                      A
 Frequencies --   1129.4564              1148.3887              1151.9089
 Red. masses --      2.0975                 4.0724                 3.0323
 Frc consts  --      1.5765                 3.1643                 2.3706
 IR Inten    --    120.2829                89.4816                17.4814

                     28                     29                     30
                      A                      A                      A
 Frequencies --   1166.7346              1196.2542              1252.9376
 Red. masses --      2.1106                 2.3971                 1.2104
 Frc consts  --      1.6928                 2.0211                 1.1196
 IR Inten    --     72.6909                28.7211                36.9754

                     31                     32                     33
                      A                      A                      A
 Frequencies --   1253.4931              1296.5890              1306.4940
 Red. masses --      1.5609                 1.2819                 2.0176
 Frc consts  --      1.4450                 1.2697                 2.0291
 IR Inten    --      8.4426                10.8180                27.5017

                     34                     35                     36
                      A                      A                      A
 Frequencies --   1364.3299              1390.7729              1411.8357
 Red. masses --      2.0687                 1.2691                 1.3014
 Frc consts  --      2.2688                 1.4464                 1.5284
 IR Inten    --     38.3481                12.3244                 9.7439

                     37                     38                     39
                      A                      A                      A
 Frequencies --   1424.9358              1440.6400              1469.1890
 Red. masses --      1.2665                 1.3194                 1.4162
 Frc consts  --      1.5151                 1.6134                 1.8011
 IR Inten    --     84.9018                56.2273                 9.2443

                     40                     41                     42
                      A                      A                      A
 Frequencies --   1499.9382              1507.8076              1514.3210
 Red. masses --      1.3654                 1.1200                 1.1495
 Frc consts  --      1.8099                 1.5002                 1.5531
 IR Inten    --    276.5366                49.4142                56.5347

                     43                     44                     45
                      A                      A                      A
 Frequencies --   1530.9169              1880.6841              3022.5836
 Red. masses --      1.1090                 9.1686                 1.0656
 Frc consts  --      1.5314                19.1067                 5.7358
 IR Inten    --     35.1514               305.6735                38.1553

                     46                     47                     48
                      A                      A                      A
 Frequencies --   3032.3789              3063.2732              3096.1715
 Red. masses --      1.0601                 1.0618                 1.1097
 Frc consts  --      5.7432                 5.8704                 6.2677
 IR Inten    --     29.2252                26.5117                12.4740

                     49                     50                     51
                      A                      A                      A
 Frequencies --   3099.6667              3128.5899              3382.1224
 Red. masses --      1.1038                 1.1090                 1.0679
 Frc consts  --      6.2485                 6.3954                 7.1974
 IR Inten    --     30.6526                13.3757               494.0128

                     52                     53                     54
                      A                      A                      A
 Frequencies --   3736.5340              3741.4769              3788.8302
 Red. masses --      1.0661                 1.0657                 1.0667
 Frc consts  --      8.7696                 8.7898                 9.0223
 IR Inten    --     28.3004                86.0827                80.0936

 Optimization completed.
    -- Stationary point found.

 1\1\GINC-C244\Freq\RwB97XD\def2SVPP\C5H10O5\PETERCHAO1\04-Aug-2022\0\\
 #T Geom=AllCheck Guess=TCheck SCRF=Check GenChk RwB97XD/def2SVPP Freq\
 \Comment gs min\\0,1\O,2.8371019344,0.1446996402,1.1881129347\C,2.3720
 261717,-0.0961863981,-0.134971786\C,2.9867885975,0.9202284214,-1.09978
 25459\C,2.5065327275,0.5904472427,-2.5260213072\O,3.0104942756,-0.6306
 810877,-2.9914774453\C,2.5701423999,2.3626764823,-0.7170123832\O,2.999
 9861,3.3262816777,-1.6331188623\C,4.5255477897,0.8802036993,-1.0977764
 695\O,5.1221438386,0.6646915231,0.0656083758\O,5.1646180923,1.10493849

 Normal termination of Gaussian 16 at Thu Aug  4 16:35:46 2022.
