 Gaussian 16, Revision B.01,
 Gaussian 16:  ES64L-G16RevB.01 20-Dec-2017

 ----------------------------------------------------------------------
 #T wB97XD/def2svpp opt=tight freq int(grid=ultrafine) scf=(verytight,q
 c) Volume=tight
 ----------------------------------------------------------------------
 -------
 Monomer
 -------
 Symbolic Z-matrix:
 Charge =  0 Multiplicity = 1

 SCF Done:  E(RwB97XD) =  -311.946939913     a.u. after    7 cycles
 Optimization completed.
    -- Stationary point found.

 1\1\GINC-C386\FOpt\RwB97XD\def2SVPP\C6H14O1\PETERCHAO1\06-Feb-2023\0\\
 #T wB97XD/def2svpp opt=tight freq int(grid=ultrafine) scf=(verytight,q
 c) Volume=tight\\Monomer\\0,1\C,1.781406,1.038756,-0.019436\C,0.848844
 ,-0.086972,-0.462274\O,1.395494,-1.341556,-0.106279\C,-0.630738,0.0469
 55,0.002025\C,-0.746142,-0.086077,1.527535\C,-1.202195,1.401689,-0.438
 533\C,-1.437396,-1.079179,-0.661182\H,1.470321,2.018384,-0.416368\H,2.
 798733,0.827579,-0.388376\H,1.82934,1.118562,1.082256\H,0.834363,-0.09
 9389,-1.566619\H,1.596319,-1.330296,0.839517\H,-1.801347,-0.000284,1.8

 Normal termination of Gaussian 16 at Mon Feb  6 10:23:19 2023.

 ---------------------------------------------------------------------
 #T Geom=AllCheck Guess=TCheck SCRF=Check GenChk RwB97XD/def2SVPP Freq
 ---------------------------------------------------------------------
 Structure from the checkpoint file:  "17.chk"
 -------
 Monomer
 -------
 Charge =  0 Multiplicity = 1

                         Standard orientation:
 ---------------------------------------------------------------------
 Center     Atomic      Atomic             Coordinates (Angstroms)
 Number     Number       Type             X           Y           Z
 ---------------------------------------------------------------------
      1          6           0        1.781406    1.038756   -0.019436
      2          6           0        0.848844   -0.086972   -0.462274
      3          8           0        1.395494   -1.341556   -0.106279
      4          6           0       -0.630738    0.046955    0.002025
      5          6           0       -0.746142   -0.086077    1.527535
      6          6           0       -1.202194    1.401689   -0.438533
      7          6           0       -1.437396   -1.079179   -0.661182
      8          1           0        1.470322    2.018384   -0.416368
      9          1           0        2.798733    0.827578   -0.388376
     10          1           0        1.829340    1.118562    1.082256
     11          1           0        0.834363   -0.099389   -1.566619
     12          1           0        1.596319   -1.330296    0.839517
     13          1           0       -1.801347   -0.000283    1.841453
     14          1           0       -0.182184    0.701130    2.058896
     15          1           0       -0.385489   -1.070422    1.875713
     16          1           0       -2.291931    1.434641   -0.261453
     17          1           0       -1.034387    1.574333   -1.517618
     18          1           0       -0.752580    2.243517    0.115981
     19          1           0       -1.436063   -0.969921   -1.760853
     20          1           0       -2.488404   -1.063518   -0.321142
     21          1           0       -1.003321   -2.062902   -0.419961
 ---------------------------------------------------------------------

 SCF Done:  E(RwB97XD) =  -311.946939913     a.u. after    1 cycles

 The electronic state is 1-A.
 Alpha  occ. eigenvalues --  -19.24454 -10.33849 -10.30438 -10.28391 -10.28361
 Alpha  occ. eigenvalues --  -10.28203 -10.27238  -1.10981  -0.91128  -0.82547
 Alpha  occ. eigenvalues --   -0.77619  -0.76948  -0.71722  -0.63565  -0.57129
 Alpha  occ. eigenvalues --   -0.55418  -0.54112  -0.52349  -0.51398  -0.47971
 Alpha  occ. eigenvalues --   -0.46660  -0.46280  -0.45243  -0.44360  -0.43152
 Alpha  occ. eigenvalues --   -0.41198  -0.40643  -0.38653  -0.34545
 Alpha virt. eigenvalues --    0.12283   0.15404   0.16815   0.17618   0.18940
 Alpha virt. eigenvalues --    0.19163   0.20497   0.21191   0.22141   0.23764
 Alpha virt. eigenvalues --    0.24879   0.25392   0.26018   0.27946   0.28427

 Mulliken charges:
               1
     1  C   -0.321643
     2  C    0.092400
     3  O   -0.486492
     4  C   -0.235097
     5  C   -0.313668
     6  C   -0.285116
     7  C   -0.258696
     8  H    0.125392
     9  H    0.133383
    10  H    0.107460
    11  H    0.083947
    12  H    0.314174
    13  H    0.120037
    14  H    0.118753
    15  H    0.108943
    16  H    0.115846
    17  H    0.115428
    18  H    0.119561
    19  H    0.107393
    20  H    0.109414
    21  H    0.128583
 Sum of Mulliken charges =   0.00000

 Dipole moment (field-independent basis, Debye):
    X=             -0.1684    Y=              1.1928    Z=              1.0531  Tot=              1.6001
  Exact polarizability:  69.997   1.508  66.293   0.828  -0.775  66.112
 Approx polarizability:  69.582  -0.722  69.993   0.629  -0.580  71.712
   1 Symmetry operations used in ECPInt.
 ECPInt:  NShTT=    2485 NPrTT=   10003 LenC2=    2480 LenP2D=    8202.
 LDataN:  DoStor=T MaxTD1= 6 Len=  172
 Calling FoFJK, ICntrl=    100127 FMM=F ISym2X=0 I1Cent= 0 IOpClX= 0 NMat=1 NMatS=1 NMatT=0.
 Full mass-weighted force constant matrix:
 Low frequencies ---   -4.9372   -0.0011    0.0006    0.0007    3.6239   10.3627
 Low frequencies ---   71.9574  218.3810  244.1484
 Diagonal vibrational polarizability:

                      1                      2                      3
                      A                      A                      A
 Frequencies --     71.9046               218.3749               244.1420
 Red. masses --      2.4633                 1.0218                 1.4443
 Frc consts  --      0.0075                 0.0287                 0.0507
 IR Inten    --      0.9613                 1.3943                 8.8878

                      4                      5                      6
                      A                      A                      A
 Frequencies --    256.1294               272.8915               283.0457
 Red. masses --      1.3708                 1.0820                 1.8035
 Frc consts  --      0.0530                 0.0475                 0.0851
 IR Inten    --      0.0837                14.7302                 2.0349

                      7                      8                      9
                      A                      A                      A
 Frequencies --    305.9334               333.0902               367.8554
 Red. masses --      1.6455                 1.2787                 2.0911
 Frc consts  --      0.0907                 0.0836                 0.1667
 IR Inten    --     13.6444                75.5072                15.7113

                     10                     11                     12
                      A                      A                      A
 Frequencies --    372.4793               395.5147               456.6501
 Red. masses --      2.1043                 2.2440                 2.3555
 Frc consts  --      0.1720                 0.2068                 0.2894
 IR Inten    --      4.3403                 0.8180                 2.8718

                     13                     14                     15
                      A                      A                      A
 Frequencies --    505.7783               569.4464               727.1912
 Red. masses --      3.0213                 2.4601                 2.8027
 Frc consts  --      0.4554                 0.4700                 0.8732
 IR Inten    --     18.6454                 1.0528                 2.3632

                     16                     17                     18
                      A                      A                      A
 Frequencies --    870.5977               949.8948               956.4180
 Red. masses --      2.1130                 1.7235                 1.6718
 Frc consts  --      0.9436                 0.9163                 0.9010
 IR Inten    --      1.2191                 5.9836                 3.7591

                     19                     20                     21
                      A                      A                      A
 Frequencies --    960.3351               970.4749              1015.3607
 Red. masses --      1.4703                 1.2580                 1.3234
 Frc consts  --      0.7989                 0.6981                 0.8039
 IR Inten    --      0.6871                 0.1491                 5.2392

                     22                     23                     24
                      A                      A                      A
 Frequencies --   1044.7634              1077.2620              1108.6041
 Red. masses --      1.4626                 1.4541                 1.7620
 Frc consts  --      0.9406                 0.9942                 1.2759
 IR Inten    --      0.6844                19.9901                43.8866

                     25                     26                     27
                      A                      A                      A
 Frequencies --   1163.4042              1242.6784              1273.4922
 Red. masses --      2.8335                 2.0655                 2.5033
 Frc consts  --      2.2596                 1.8792                 2.3920
 IR Inten    --     94.4002                 5.6916                 0.5383

                     28                     29                     30
                      A                      A                      A
 Frequencies --   1302.6210              1321.0209              1380.1068
 Red. masses --      2.7322                 1.6260                 1.3124
 Frc consts  --      2.7315                 1.6718                 1.4728
 IR Inten    --      0.9864                11.6479                 0.4944

                     31                     32                     33
                      A                      A                      A
 Frequencies --   1407.0422              1410.2600              1414.3580
 Red. masses --      1.3175                 1.3118                 1.3064
 Frc consts  --      1.5367                 1.5372                 1.5397
 IR Inten    --     11.6011                14.4231                12.9335

                     34                     35                     36
                      A                      A                      A
 Frequencies --   1433.7987              1443.7831              1473.4639
 Red. masses --      1.2582                 1.2591                 1.0469
 Frc consts  --      1.5239                 1.5464                 1.3391
 IR Inten    --     10.8772                41.0452                 1.1830

                     37                     38                     39
                      A                      A                      A
 Frequencies --   1481.2967              1485.9839              1490.2868
 Red. masses --      1.0459                 1.0440                 1.0654
 Frc consts  --      1.3522                 1.3583                 1.3941
 IR Inten    --      0.8749                 0.6028                 1.3553

                     40                     41                     42
                      A                      A                      A
 Frequencies --   1494.9293              1504.3638              1507.8231
 Red. masses --      1.0524                 1.0663                 1.0578
 Frc consts  --      1.3857                 1.4218                 1.4170
 IR Inten    --     18.6280                 1.1895                 9.5589

                     43                     44                     45
                      A                      A                      A
 Frequencies --   1518.6794              3022.9613              3024.8416
 Red. masses --      1.0718                 1.0378                 1.0377
 Frc consts  --      1.4565                 5.5874                 5.5942
 IR Inten    --     19.3952                26.3581                22.6870

                     46                     47                     48
                      A                      A                      A
 Frequencies --   3029.4148              3036.1525              3065.0844
 Red. masses --      1.0391                 1.0401                 1.0872
 Frc consts  --      5.6188                 5.6493                 6.0179
 IR Inten    --     19.6426                11.9486                23.7215

                     49                     50                     51
                      A                      A                      A
 Frequencies --   3109.9522              3112.6308              3116.2020
 Red. masses --      1.1047                 1.1042                 1.1033
 Frc consts  --      6.2953                 6.3030                 6.3123
 IR Inten    --      0.3784                23.6148                31.2433

                     52                     53                     54
                      A                      A                      A
 Frequencies --   3116.4746              3122.3360              3127.6962
 Red. masses --      1.1042                 1.1038                 1.1021
 Frc consts  --      6.3188                 6.3401                 6.3524
 IR Inten    --     28.5326                39.0706                21.3654

                     55                     56                     57
                      A                      A                      A
 Frequencies --   3143.6499              3149.6280              3768.4859
 Red. masses --      1.1034                 1.1043                 1.0657
 Frc consts  --      6.4244                 6.4544                 8.9169
 IR Inten    --     11.2017                14.6444                21.5689

 Optimization completed.
    -- Stationary point found.

 1\1\GINC-C386\Freq\RwB97XD\def2SVPP\C6H14O1\PETERCHAO1\06-Feb-2023\0\\
 #T Geom=AllCheck Guess=TCheck SCRF=Check GenChk RwB97XD/def2SVPP Freq\
 \Monomer\\0,1\C,1.781406,1.038756,-0.019436\C,0.848844,-0.086972,-0.46
 2274\O,1.395494,-1.341556,-0.106279\C,-0.630738,0.046955,0.002025\C,-0
 .746142,-0.086077,1.527535\C,-1.202195,1.401689,-0.438533\C,-1.437396,
 -1.079179,-0.661182\H,1.470321,2.018384,-0.416368\H,2.798733,0.827579,
 -0.388376\H,1.82934,1.118562,1.082256\H,0.834363,-0.099389,-1.566619\H
 ,1.596319,-1.330296,0.839517\H,-1.801347,-0.000284,1.841453\H,-0.18218

 Normal termination of Gaussian 16 at Mon Feb  6 10:25:19 2023.
