 Gaussian 16, Revision B.01,
 Gaussian 16:  ES64L-G16RevB.01 20-Dec-2017

 ----------------------------------------------------------------------
 #T wB97XD/def2svpp opt=tight freq int(grid=ultrafine) scf=(verytight,q
 c) Volume=tight
 ----------------------------------------------------------------------
 -----
 Dimer
 -----
 Symbolic Z-matrix:
 Charge =  0 Multiplicity = 1

 SCF Done:  E(RwB97XD) =  -498.857982728     a.u. after    8 cycles
 SCF Done:  E(RwB97XD) =  -498.859768106     a.u. after    9 cycles
 SCF Done:  E(RwB97XD) =  -498.857038928     a.u. after    9 cycles
 SCF Done:  E(RwB97XD) =  -498.859451824     a.u. after    9 cycles
 SCF Done:  E(RwB97XD) =  -498.860251371     a.u. after    2 cycles
 SCF Done:  E(RwB97XD) =  -498.860705224     a.u. after    7 cycles
 SCF Done:  E(RwB97XD) =  -498.860839892     a.u. after    5 cycles
 SCF Done:  E(RwB97XD) =  -498.860917197     a.u. after    5 cycles
 SCF Done:  E(RwB97XD) =  -498.860946969     a.u. after    5 cycles
 SCF Done:  E(RwB97XD) =  -498.860979970     a.u. after    5 cycles
 SCF Done:  E(RwB97XD) =  -498.860991107     a.u. after    2 cycles
 SCF Done:  E(RwB97XD) =  -498.860991167     a.u. after    2 cycles
 SCF Done:  E(RwB97XD) =  -498.860991180     a.u. after    2 cycles
 SCF Done:  E(RwB97XD) =  -498.860991185     a.u. after    2 cycles
 SCF Done:  E(RwB97XD) =  -498.860991190     a.u. after    2 cycles
 SCF Done:  E(RwB97XD) =  -498.860991193     a.u. after    2 cycles
 SCF Done:  E(RwB97XD) =  -498.860991195     a.u. after    2 cycles
 SCF Done:  E(RwB97XD) =  -498.860991195     a.u. after    2 cycles
 SCF Done:  E(RwB97XD) =  -498.860991196     a.u. after    2 cycles
 Optimization completed.
    -- Stationary point found.
 Normal termination of Gaussian 16 at Mon Apr  1 15:35:51 2024.

 ---------------------------------------------------------------------
 #T Geom=AllCheck Guess=TCheck SCRF=Check GenChk RwB97XD/def2SVPP Freq
 ---------------------------------------------------------------------
 Structure from the checkpoint file:  "dimer.chk"
 -----
 Dimer
 -----
 Charge =  0 Multiplicity = 1

                         Standard orientation:
 ---------------------------------------------------------------------
 Center     Atomic      Atomic             Coordinates (Angstroms)
 Number     Number       Type             X           Y           Z
 ---------------------------------------------------------------------
      1          6           0       -3.347206   -1.158284   -0.266575
      2          6           0       -1.975427   -0.504811   -0.131018
      3          7           0       -1.467165   -0.158949   -1.449438
      4          6           0       -2.026295    0.659054    0.872254
      5          8           0       -0.766951    1.223576    1.145926
      6          1           0       -4.088361   -0.431119   -0.649147
      7          1           0       -3.717193   -1.538342    0.700968
      8          1           0       -3.295279   -1.996087   -0.980751
      9          1           0       -1.284571   -1.260723    0.294101
     10          1           0       -2.147061    0.416997   -1.948785
     11          1           0       -0.605330    0.389277   -1.388762
     12          1           0       -2.499773    0.312321    1.815122
     13          1           0       -2.661986    1.465896    0.463957
     14          1           0       -0.118338    0.503817    1.373753
     15          6           0        3.174606   -1.372009   -0.159231
     16          6           0        1.891653   -0.544519   -0.070342
     17          7           0        1.307036   -0.559221    1.281495
     18          6           0        2.137498    0.901499   -0.526590
     19          8           0        0.994861    1.624023   -0.867210
     20          1           0        3.542462   -1.433467   -1.197602
     21          1           0        3.004316   -2.402413    0.199076
     22          1           0        3.975020   -0.924338    0.459536
     23          1           0        1.134408   -0.977601   -0.747398
     24          1           0        1.062461   -1.513214    1.552160
     25          1           0        1.994270   -0.228934    1.964112
     26          1           0        2.768630    0.873354   -1.430580
     27          1           0        2.732285    1.419125    0.260838
     28          1           0        0.372694    1.686270   -0.105709
 ---------------------------------------------------------------------

 SCF Done:  E(RwB97XD) =  -498.860991196     a.u. after    1 cycles

 The electronic state is 1-A.
 Alpha  occ. eigenvalues --  -19.23499 -19.23049 -14.45583 -14.39422 -10.33634
 Alpha  occ. eigenvalues --  -10.33444 -10.32367 -10.31205 -10.29776 -10.27849
 Alpha  occ. eigenvalues --   -1.10706  -1.08977  -1.00599  -0.96120  -0.85346
 Alpha  occ. eigenvalues --   -0.82734  -0.76991  -0.75478  -0.69365  -0.67335
 Alpha  occ. eigenvalues --   -0.62916  -0.58790  -0.57321  -0.57223  -0.56107
 Alpha  occ. eigenvalues --   -0.53898  -0.52762  -0.51155  -0.50547  -0.49720
 Alpha  occ. eigenvalues --   -0.48686  -0.47500  -0.46662  -0.44561  -0.44097
 Alpha  occ. eigenvalues --   -0.42125  -0.41312  -0.39288  -0.35848  -0.35335
 Alpha  occ. eigenvalues --   -0.34090  -0.29593
 Alpha virt. eigenvalues --    0.11020   0.14153   0.15472   0.16317   0.17346
 Alpha virt. eigenvalues --    0.18509   0.19158   0.20029   0.20208   0.21780
 Alpha virt. eigenvalues --    0.22397   0.23220   0.23306   0.24546   0.25458

 Mulliken charges:
               1
     1  C   -0.307440
     2  C   -0.124903
     3  N   -0.526611
     4  C    0.065242
     5  O   -0.533442
     6  H    0.106745
     7  H    0.114042
     8  H    0.132801
     9  H    0.072111
    10  H    0.209962
    11  H    0.227736
    12  H    0.080196
    13  H    0.085979
    14  H    0.331070
    15  C   -0.310697
    16  C   -0.145718
    17  N   -0.535527
    18  C    0.060841
    19  O   -0.498666
    20  H    0.132141
    21  H    0.119743
    22  H    0.111854
    23  H    0.137642
    24  H    0.246000
    25  H    0.238409
    26  H    0.105858
    27  H    0.076480
    28  H    0.328152
 Sum of Mulliken charges =  -0.00000

 Dipole moment (field-independent basis, Debye):
    X=              1.6397    Y=             -2.5038    Z=              2.3050  Tot=              3.7776
  Exact polarizability: 104.044  -0.949  80.661  -1.185  -1.497  81.296
 Approx polarizability:  95.067  -0.818  86.151   0.146  -2.156  89.098
   1 Symmetry operations used in ECPInt.
 ECPInt:  NShTT=    4656 NPrTT=   18712 LenC2=    4587 LenP2D=   13923.
 LDataN:  DoStor=T MaxTD1= 6 Len=  172
 Calling FoFJK, ICntrl=    100127 FMM=F ISym2X=0 I1Cent= 0 IOpClX= 0 NMat=1 NMatS=1 NMatT=0.
 Full mass-weighted force constant matrix:
 Low frequencies ---   -5.6946   -2.8463    0.0008    0.0009    0.0012    3.0780
 Low frequencies ---   42.9873   57.3675   96.2202
 Diagonal vibrational polarizability:

                      1                      2                      3
                      A                      A                      A
 Frequencies --     42.9707                57.3646                96.2195
 Red. masses --      3.0908                 3.4456                 2.6246
 Frc consts  --      0.0034                 0.0067                 0.0143
 IR Inten    --      0.3363                 9.3379                 1.6685

                      4                      5                      6
                      A                      A                      A
 Frequencies --    118.8611               133.8465               161.2711
 Red. masses --      4.6325                 3.7437                 2.9454
 Frc consts  --      0.0386                 0.0395                 0.0451
 IR Inten    --      2.4445                 2.2756                 4.0723

                      7                      8                      9
                      A                      A                      A
 Frequencies --    206.4470               236.3038               245.9341
 Red. masses --      2.7364                 1.3276                 1.1477
 Frc consts  --      0.0687                 0.0437                 0.0409
 IR Inten    --      3.7944                 3.6350                 0.5656

                     10                     11                     12
                      A                      A                      A
 Frequencies --    279.5396               289.9675               331.0920
 Red. masses --      2.3196                 2.9069                 3.7037
 Frc consts  --      0.1068                 0.1440                 0.2392
 IR Inten    --      3.7442                10.0296                 4.5852

                     13                     14                     15
                      A                      A                      A
 Frequencies --    360.0180               381.3801               407.2312
 Red. masses --      1.3241                 1.3387                 2.2655
 Frc consts  --      0.1011                 0.1147                 0.2214
 IR Inten    --     44.2262                 5.4811                10.6342

                     16                     17                     18
                      A                      A                      A
 Frequencies --    417.5878               469.9554               493.5815
 Red. masses --      2.4242                 1.9190                 1.7862
 Frc consts  --      0.2491                 0.2497                 0.2564
 IR Inten    --      2.9495                 1.7121                15.3523

                     19                     20                     21
                      A                      A                      A
 Frequencies --    533.9211               549.5271               750.0918
 Red. masses --      2.8251                 2.8273                 1.0988
 Frc consts  --      0.4745                 0.5030                 0.3642
 IR Inten    --      3.7671                 2.2423               193.1235

                     22                     23                     24
                      A                      A                      A
 Frequencies --    854.8279               857.9405               913.2047
 Red. masses --      2.2777                 2.3114                 1.2146
 Frc consts  --      0.9806                 1.0024                 0.5968
 IR Inten    --     23.5812                36.0254                73.3428

                     25                     26                     27
                      A                      A                      A
 Frequencies --    939.6818               950.7148               961.3588
 Red. masses --      1.3105                 1.4479                 1.5923
 Frc consts  --      0.6818                 0.7711                 0.8671
 IR Inten    --     27.7720                47.9518                37.9075

                     28                     29                     30
                      A                      A                      A
 Frequencies --    965.5346               968.6797              1021.7298
 Red. masses --      1.5579                 1.5020                 1.2644
 Frc consts  --      0.8557                 0.8304                 0.7777
 IR Inten    --      7.4590                33.1948               246.0817

                     31                     32                     33
                      A                      A                      A
 Frequencies --   1052.5729              1054.9239              1137.4661
 Red. masses --      1.5292                 1.3483                 3.0622
 Frc consts  --      0.9982                 0.8841                 2.3343
 IR Inten    --     24.8633                 1.5120               144.1991

                     34                     35                     36
                      A                      A                      A
 Frequencies --   1149.6792              1162.7989              1179.5584
 Red. masses --      2.6230                 2.5840                 4.0358
 Frc consts  --      2.0427                 2.0585                 3.3084
 IR Inten    --     49.0571                23.9251                54.2848

                     37                     38                     39
                      A                      A                      A
 Frequencies --   1202.1779              1209.8291              1228.9177
 Red. masses --      1.7924                 1.8935                 1.3078
 Frc consts  --      1.5262                 1.6329                 1.1637
 IR Inten    --      8.0492                 4.1284                11.5689

                     40                     41                     42
                      A                      A                      A
 Frequencies --   1262.5449              1307.6467              1332.6984
 Red. masses --      1.2558                 1.4248                 1.2232
 Frc consts  --      1.1794                 1.4354                 1.2800
 IR Inten    --     10.6345                 0.0702                26.9784

                     43                     44                     45
                      A                      A                      A
 Frequencies --   1352.8007              1358.3863              1407.0751
 Red. masses --      1.2878                 1.3009                 1.2286
 Frc consts  --      1.3886                 1.4143                 1.4331
 IR Inten    --      2.4939                 5.6435                 5.4464

                     46                     47                     48
                      A                      A                      A
 Frequencies --   1415.2370              1425.6409              1430.4750
 Red. masses --      1.2547                 1.3133                 1.3346
 Frc consts  --      1.4807                 1.5726                 1.6090
 IR Inten    --      1.7702                22.6800                10.5395

                     49                     50                     51
                      A                      A                      A
 Frequencies --   1442.5379              1447.2072              1479.6394
 Red. masses --      1.3440                 1.5745                 1.1293
 Frc consts  --      1.6478                 1.9429                 1.4567
 IR Inten    --     23.2077                 4.9335                16.8069

                     52                     53                     54
                      A                      A                      A
 Frequencies --   1485.9589              1488.6745              1494.9076
 Red. masses --      1.0523                 1.0703                 1.0581
 Frc consts  --      1.3690                 1.3975                 1.3931
 IR Inten    --      4.2204                 4.8321                 7.8587

                     55                     56                     57
                      A                      A                      A
 Frequencies --   1497.6133              1503.5071              1506.6803
 Red. masses --      1.0860                 1.1008                 1.1166
 Frc consts  --      1.4352                 1.4661                 1.4934
 IR Inten    --     10.4137                 2.0863                10.5867

                     58                     59                     60
                      A                      A                      A
 Frequencies --   1560.5268              1657.7141              1696.5030
 Red. masses --      1.1107                 1.0946                 1.0961
 Frc consts  --      1.5937                 1.7722                 1.8587
 IR Inten    --    164.7468                42.9589                39.8569

                     61                     62                     63
                      A                      A                      A
 Frequencies --   2955.8864              2988.5667              3013.2391
 Red. masses --      1.0728                 1.0675                 1.0842
 Frc consts  --      5.5229                 5.6173                 5.8002
 IR Inten    --     88.0666               123.1934                20.3774

                     64                     65                     66
                      A                      A                      A
 Frequencies --   3023.5837              3026.7402              3077.5574
 Red. masses --      1.0391                 1.0405                 1.0879
 Frc consts  --      5.5968                 5.6160                 6.0708
 IR Inten    --     25.3565                30.6275                 2.9399

                     67                     68                     69
                      A                      A                      A
 Frequencies --   3080.2298              3102.1693              3115.1002
 Red. masses --      1.1010                 1.0951                 1.1034
 Frc consts  --      6.1544                 6.2089                 6.3082
 IR Inten    --     71.6426                32.8641                23.5266

                     70                     71                     72
                      A                      A                      A
 Frequencies --   3115.7732              3132.7249              3144.7589
 Red. masses --      1.1013                 1.1044                 1.1052
 Frc consts  --      6.2991                 6.3857                 6.4397
 IR Inten    --     31.4956                20.7989                13.3106

                     73                     74                     75
                      A                      A                      A
 Frequencies --   3220.0763              3439.2713              3470.5009
 Red. masses --      1.0725                 1.0660                 1.0524
 Frc consts  --      6.5518                 7.4289                 7.4682
 IR Inten    --    713.1820               491.3679                 0.5859

                     76                     77                     78
                      A                      A                      A
 Frequencies --   3474.2031              3551.1944              3556.5710
 Red. masses --      1.0539                 1.0928                 1.0919
 Frc consts  --      7.4951                 8.1200                 8.1373
 IR Inten    --    340.2225               102.5961                 3.9273

                           ! Non-Optimized Parameters !
 Normal termination of Gaussian 16 at Mon Apr  1 15:40:49 2024.
