 Gaussian 16, Revision B.01,
 Gaussian 16:  ES64L-G16RevB.01 20-Dec-2017

 ----------------------------------------------------------------------
 #T wB97XD/def2svpp opt=tight freq int(grid=ultrafine) scf=(verytight,q
 c) Volume=tight
 ----------------------------------------------------------------------
 -------
 Monomer
 -------
 Symbolic Z-matrix:
 Charge =  0 Multiplicity = 1

 SCF Done:  E(RwB97XD) =  -197.545088829     a.u. after    6 cycles
 Optimization completed.
    -- Stationary point found.
 Normal termination of Gaussian 16 at Mon Feb  6 10:22:38 2023.

 ---------------------------------------------------------------------
 #T Geom=AllCheck Guess=TCheck SCRF=Check GenChk RwB97XD/def2SVPP Freq
 ---------------------------------------------------------------------
 Structure from the checkpoint file:  "7.chk"
 -------
 Monomer
 -------
 Charge =  0 Multiplicity = 1

                         Standard orientation:
 ---------------------------------------------------------------------
 Center     Atomic      Atomic             Coordinates (Angstroms)
 Number     Number       Type             X           Y           Z
 ---------------------------------------------------------------------
      1          6           0       -2.551957    0.322472   -0.000000
      2          6           0       -1.279601   -0.520965   -0.000000
      3          6           0        0.000000    0.315012   -0.000000
      4          6           0        1.279601   -0.520965   -0.000000
      5          6           0        2.551957    0.322472   -0.000000
      6          1           0       -2.597568    0.973952   -0.891053
      7          1           0       -2.597572    0.973948    0.891056
      8          1           0       -3.456008   -0.310451   -0.000003
      9          1           0       -1.277967   -1.186783   -0.883485
     10          1           0       -1.277967   -1.186781    0.883487
     11          1           0        0.000000    0.982040    0.884233
     12          1           0        0.000000    0.982039   -0.884235
     13          1           0        1.277967   -1.186781   -0.883486
     14          1           0        1.277966   -1.186782    0.883485
     15          1           0        2.597569    0.973951    0.891055
     16          1           0        2.597571    0.973949   -0.891055
     17          1           0        3.456008   -0.310451    0.000002
 ---------------------------------------------------------------------

 SCF Done:  E(RwB97XD) =  -197.545088829     a.u. after    1 cycles

 The electronic state is 1-A.
 Alpha  occ. eigenvalues --  -10.28511 -10.28510 -10.28323 -10.27856 -10.27855
 Alpha  occ. eigenvalues --   -0.89298  -0.84037  -0.76264  -0.68269  -0.65996
 Alpha  occ. eigenvalues --   -0.56249  -0.52405  -0.51644  -0.48972  -0.47666
 Alpha  occ. eigenvalues --   -0.45853  -0.43456  -0.41399  -0.40599  -0.39876
 Alpha  occ. eigenvalues --   -0.39728
 Alpha virt. eigenvalues --    0.13932   0.15574   0.16911   0.17354   0.19808
 Alpha virt. eigenvalues --    0.21820   0.21988   0.23502   0.24043   0.24565
 Alpha virt. eigenvalues --    0.25141   0.26324   0.29441   0.31350   0.33281

 Mulliken charges:
               1
     1  C   -0.310551
     2  C   -0.215066
     3  C   -0.233304
     4  C   -0.215065
     5  C   -0.310552
     6  H    0.112686
     7  H    0.112686
     8  H    0.119697
     9  H    0.100572
    10  H    0.100572
    11  H    0.096055
    12  H    0.096055
    13  H    0.100572
    14  H    0.100572
    15  H    0.112686
    16  H    0.112686
    17  H    0.119697
 Sum of Mulliken charges =  -0.00000

 Dipole moment (field-independent basis, Debye):
    X=             -0.0000    Y=             -0.0557    Z=              0.0000  Tot=              0.0557
  Exact polarizability:  63.584   0.000  52.067  -0.000  -0.000  50.114
 Approx polarizability:  54.329   0.000  54.745  -0.000  -0.000  54.987
   1 Symmetry operations used in ECPInt.
 ECPInt:  NShTT=    1485 NPrTT=    5987 LenC2=    1481 LenP2D=    4970.
 LDataN:  DoStor=T MaxTD1= 6 Len=  172
 Calling FoFJK, ICntrl=    100127 FMM=F ISym2X=0 I1Cent= 0 IOpClX= 0 NMat=1 NMatS=1 NMatT=0.
 Full mass-weighted force constant matrix:
 Low frequencies ---  -24.5732   -7.7253   -3.4626   -0.0003    0.0005    0.0008
 Low frequencies ---  106.8166  118.0511  183.0275
 Diagonal vibrational polarizability:

                      1                      2                      3
                      A                      A                      A
 Frequencies --    106.8155               118.0506               183.0275
 Red. masses --      1.5111                 2.3076                 2.5208
 Frc consts  --      0.0102                 0.0189                 0.0498
 IR Inten    --      0.0000                 0.0000                 0.0246

                      4                      5                      6
                      A                      A                      A
 Frequencies --    251.1363               261.5571               406.8155
 Red. masses --      1.0751                 1.1605                 2.3370
 Frc consts  --      0.0399                 0.0468                 0.2279
 IR Inten    --      0.0013                 0.0000                 0.0016

                      7                      8                      9
                      A                      A                      A
 Frequencies --    407.8609               743.7883               776.7454
 Red. masses --      3.3493                 1.0648                 1.1144
 Frc consts  --      0.3283                 0.3471                 0.3961
 IR Inten    --      0.0017                 4.5330                 0.0000

                     10                     11                     12
                      A                      A                      A
 Frequencies --    879.7985               893.2968               950.1996
 Red. masses --      1.1606                 1.6839                 1.8935
 Frc consts  --      0.5293                 0.7917                 1.0073
 IR Inten    --      1.9450                 1.5125                 2.7481

                     13                     14                     15
                      A                      A                      A
 Frequencies --   1005.1662              1061.4576              1080.2573
 Red. masses --      1.1261                 1.9581                 2.6134
 Frc consts  --      0.6703                 1.2998                 1.7968
 IR Inten    --      0.0000                 1.7208                 0.6065

                     16                     17                     18
                      A                      A                      A
 Frequencies --   1105.0418              1178.3721              1216.2595
 Red. masses --      1.8513                 2.3305                 1.8178
 Frc consts  --      1.3319                 1.9067                 1.5844
 IR Inten    --      0.5106                 1.4286                 0.2660

                     19                     20                     21
                      A                      A                      A
 Frequencies --   1276.0948              1301.2194              1337.4716
 Red. masses --      1.3180                 1.3185                 1.1521
 Frc consts  --      1.2645                 1.3154                 1.2143
 IR Inten    --      0.0000                 2.9180                 0.3906

                     22                     23                     24
                      A                      A                      A
 Frequencies --   1341.2347              1383.0391              1418.9721
 Red. masses --      1.0494                 1.3749                 1.2513
 Frc consts  --      1.1122                 1.5495                 1.4844
 IR Inten    --      0.0000                 0.2016                 1.3575

                     25                     26                     27
                      A                      A                      A
 Frequencies --   1429.6934              1441.2911              1485.8352
 Red. masses --      1.3598                 1.7575                 1.0625
 Frc consts  --      1.6376                 2.1511                 1.3820
 IR Inten    --      2.7155                 3.5869                 1.1727

                     28                     29                     30
                      A                      A                      A
 Frequencies --   1486.1792              1493.1955              1493.9801
 Red. masses --      1.0768                 1.0606                 1.0363
 Frc consts  --      1.4013                 1.3932                 1.3628
 IR Inten    --      0.0518                 0.4289                18.8653

                     31                     32                     33
                      A                      A                      A
 Frequencies --   1494.9606              1501.2765              1505.2964
 Red. masses --      1.0391                 1.0945                 1.0908
 Frc consts  --      1.3682                 1.4534                 1.4563
 IR Inten    --      0.0000                 2.0429                11.0647

                     34                     35                     36
                      A                      A                      A
 Frequencies --   3013.1965              3025.0871              3026.5987
 Red. masses --      1.0615                 1.0552                 1.0450
 Frc consts  --      5.6781                 5.6896                 5.6401
 IR Inten    --      8.9756                11.5642                28.9665

                     37                     38                     39
                      A                      A                      A
 Frequencies --   3027.1195              3030.4280              3054.3851
 Red. masses --      1.0388                 1.0626                 1.1027
 Frc consts  --      5.6087                 5.7492                 6.0614
 IR Inten    --     39.3384                64.0240                 0.9948

                     40                     41                     42
                      A                      A                      A
 Frequencies --   3073.0789              3085.5893              3117.1061
 Red. masses --      1.1054                 1.1063                 1.1051
 Frc consts  --      6.1505                 6.2057                 6.3265
 IR Inten    --      0.0000                47.0838                 0.0002

                     43                     44                     45
                      A                      A                      A
 Frequencies --   3118.0165              3123.8517              3124.0220
 Red. masses --      1.1047                 1.1046                 1.1044
 Frc consts  --      6.3279                 6.3510                 6.3502
 IR Inten    --     90.0480                22.2920                35.0460

 Optimization completed.
    -- Stationary point found.
 Normal termination of Gaussian 16 at Mon Feb  6 10:23:29 2023.
