 Gaussian 16, Revision B.01,
 Gaussian 16:  ES64L-G16RevB.01 20-Dec-2017

 ----------------------------------------------------------------------
 #T wB97XD/def2svpp opt=tight freq int(grid=ultrafine) scf=(verytight,q
 c)
 ----------------------------------------------------------------------
 --------------
 Comment gs min
 --------------
 Symbolic Z-matrix:
 Charge =  0 Multiplicity = 1

 SCF Done:  E(RwB97XD) =  -197.546942662     a.u. after    7 cycles
 SCF Done:  E(RwB97XD) =  -197.547681618     a.u. after    4 cycles
 SCF Done:  E(RwB97XD) =  -197.547688100     a.u. after    2 cycles
 SCF Done:  E(RwB97XD) =  -197.547689531     a.u. after    2 cycles
 SCF Done:  E(RwB97XD) =  -197.547689347     a.u. after    2 cycles
 SCF Done:  E(RwB97XD) =  -197.547687820     a.u. after    2 cycles
 Optimization completed.
    -- Stationary point found.
 Normal termination of Gaussian 16 at Thu Aug  4 16:14:17 2022.

 ---------------------------------------------------------------------
 #T Geom=AllCheck Guess=TCheck SCRF=Check GenChk RwB97XD/def2SVPP Freq
 ---------------------------------------------------------------------
 Structure from the checkpoint file:  "/scratch/user/peterchao1/peterchao1/6097794_1659647567000000408741127/Gau-201323.chk"
 --------------
 Comment gs min
 --------------
 Charge =  0 Multiplicity = 1

                         Standard orientation:
 ---------------------------------------------------------------------
 Center     Atomic      Atomic             Coordinates (Angstroms)
 Number     Number       Type             X           Y           Z
 ---------------------------------------------------------------------
      1          6           0        1.322104   -0.724753    0.289486
      2          6           0        0.000005   -0.000019    0.000005
      3          6           0       -0.331780   -0.118052   -1.494302
      4          6           0       -1.125364   -0.638847    0.826090
      5          6           0        0.135046    1.481645    0.378728
      6          1           0        1.254678   -1.795792    0.025789
      7          1           0        1.587012   -0.656543    1.360181
      8          1           0        2.152379   -0.285278   -0.292507
      9          1           0       -0.435153   -1.175964   -1.796526
     10          1           0        0.462577    0.334486   -2.115115
     11          1           0       -1.280700    0.395611   -1.732858
     12          1           0       -1.245999   -1.708055    0.574219
     13          1           0       -2.091468   -0.136448    0.637800
     14          1           0       -0.913490   -0.568630    1.908396
     15          1           0        0.939648    1.968815   -0.201353
     16          1           0        0.374126    1.597898    1.451356
     17          1           0       -0.803675    2.030058    0.180578
 ---------------------------------------------------------------------

 SCF Done:  E(RwB97XD) =  -197.547687820     a.u. after    1 cycles

 The electronic state is 1-A.
 Alpha  occ. eigenvalues --  -10.30443 -10.27712 -10.27712 -10.27712 -10.27709
 Alpha  occ. eigenvalues --   -0.91235  -0.76935  -0.76935  -0.76935  -0.61685
 Alpha  occ. eigenvalues --   -0.53324  -0.53324  -0.53324  -0.48180  -0.48179
 Alpha  occ. eigenvalues --   -0.44232  -0.44232  -0.44232  -0.39972  -0.39972
 Alpha  occ. eigenvalues --   -0.39972
 Alpha virt. eigenvalues --    0.12461   0.18532   0.18532   0.18533   0.20257
 Alpha virt. eigenvalues --    0.20257   0.20258   0.23485   0.23485   0.27288
 Alpha virt. eigenvalues --    0.27288   0.27289   0.27609   0.31239   0.31239

 Mulliken charges:
               1
     1  C   -0.269802
     2  C   -0.259707
     3  C   -0.269806
     4  C   -0.269804
     5  C   -0.269819
     6  H    0.111578
     7  H    0.111580
     8  H    0.111577
     9  H    0.111579
    10  H    0.111579
    11  H    0.111576
    12  H    0.111578
    13  H    0.111576
    14  H    0.111579
    15  H    0.111579
    16  H    0.111580
    17  H    0.111576
 Sum of Mulliken charges =   0.00000

 Dipole moment (field-independent basis, Debye):
    X=             -0.0000    Y=              0.0000    Z=             -0.0000  Tot=              0.0000
  Exact polarizability:  55.015   0.004  55.010  -0.003  -0.001  55.021
 Approx polarizability:  55.922   0.000  55.922  -0.000   0.000  55.922
   1 Symmetry operations used in ECPInt.
 ECPInt:  NShTT=    1485 NPrTT=    5987 LenC2=    1486 LenP2D=    5105.
 LDataN:  DoStor=T MaxTD1= 6 Len=  172
 Calling FoFJK, ICntrl=    100127 FMM=F ISym2X=0 I1Cent= 0 IOpClX= 0 NMat=1 NMatS=1 NMatT=0.
 Full mass-weighted force constant matrix:
 Low frequencies ---  -14.6486  -12.0262   -4.3727   -0.0005   -0.0003    0.0008
 Low frequencies ---  204.0941  289.3974  290.1099
 Diagonal vibrational polarizability:

                      1                      2                      3
                      A                      A                      A
 Frequencies --    204.0941               289.3956               290.1084
 Red. masses --      1.0078                 1.0312                 1.0313
 Frc consts  --      0.0247                 0.0509                 0.0511
 IR Inten    --      0.0000                 0.0000                 0.0001

                      4                      5                      6
                      A                      A                      A
 Frequencies --    290.8800               340.1162               340.2811
 Red. masses --      1.0312                 2.1897                 2.1897
 Frc consts  --      0.0514                 0.1492                 0.1494
 IR Inten    --      0.0000                 0.0000                 0.0000

                      7                      8                      9
                      A                      A                      A
 Frequencies --    430.0854               430.1206               430.2504
 Red. masses --      2.1166                 2.1166                 2.1173
 Frc consts  --      0.2307                 0.2307                 0.2309
 IR Inten    --      0.0184                 0.0181                 0.0179

                     10                     11                     12
                      A                      A                      A
 Frequencies --    751.5087               952.0925               952.1856
 Red. masses --      3.3929                 1.8647                 1.8651
 Frc consts  --      1.1290                 0.9959                 0.9963
 IR Inten    --      0.0000                 1.1051                 1.1059

                     13                     14                     15
                      A                      A                      A
 Frequencies --    952.2335               969.8671               970.2214
 Red. masses --      1.8644                 1.2046                 1.2046
 Frc consts  --      0.9960                 0.6676                 0.6681
 IR Inten    --      1.1047                 0.0000                 0.0002

                     16                     17                     18
                      A                      A                      A
 Frequencies --    970.6114              1094.0110              1094.0796
 Red. masses --      1.2047                 1.3597                 1.3596
 Frc consts  --      0.6687                 0.9588                 0.9589
 IR Inten    --      0.0000                 0.0000                 0.0000

                     19                     20                     21
                      A                      A                      A
 Frequencies --   1297.9902              1298.0132              1298.1058
 Red. masses --      2.4934                 2.4932                 2.4935
 Frc consts  --      2.4750                 2.4750                 2.4756
 IR Inten    --      5.4700                 5.4791                 5.4706

                     22                     23                     24
                      A                      A                      A
 Frequencies --   1409.4017              1409.5080              1409.6038
 Red. masses --      1.3074                 1.3071                 1.3069
 Frc consts  --      1.5301                 1.5300                 1.5300
 IR Inten    --     12.3962                12.4021                12.3746

                     25                     26                     27
                      A                      A                      A
 Frequencies --   1443.0737              1475.4609              1475.6352
 Red. masses --      1.2345                 1.0456                 1.0456
 Frc consts  --      1.5147                 1.3412                 1.3414
 IR Inten    --      0.0001                 0.0001                 0.0001

                     28                     29                     30
                      A                      A                      A
 Frequencies --   1475.7370              1483.0760              1483.1866
 Red. masses --      1.0456                 1.0389                 1.0389
 Frc consts  --      1.3417                 1.3463                 1.3465
 IR Inten    --      0.0000                 0.0002                 0.0001

                     31                     32                     33
                      A                      A                      A
 Frequencies --   1513.0383              1513.0738              1513.2109
 Red. masses --      1.0753                 1.0754                 1.0753
 Frc consts  --      1.4503                 1.4506                 1.4507
 IR Inten    --     13.0424                13.0248                13.0493

                     34                     35                     36
                      A                      A                      A
 Frequencies --   3017.4300              3017.7046              3018.0374
 Red. masses --      1.0368                 1.0368                 1.0368
 Frc consts  --      5.5617                 5.5628                 5.5640
 IR Inten    --     35.0904                35.0570                35.2025

                     37                     38                     39
                      A                      A                      A
 Frequencies --   3025.8731              3109.7787              3110.1172
 Red. masses --      1.0384                 1.1055                 1.1055
 Frc consts  --      5.6015                 6.2992                 6.3004
 IR Inten    --      0.0475                 0.2354                 0.1343

                     40                     41                     42
                      A                      A                      A
 Frequencies --   3110.1960              3111.0055              3111.2010
 Red. masses --      1.1056                 1.1046                 1.1046
 Frc consts  --      6.3011                 6.2990                 6.2998
 IR Inten    --      0.0794                 0.2265                 0.0276

                     43                     44                     45
                      A                      A                      A
 Frequencies --   3115.1458              3115.4228              3115.6291
 Red. masses --      1.1036                 1.1036                 1.1036
 Frc consts  --      6.3099                 6.3109                 6.3117
 IR Inten    --     66.2049                66.7151                66.7973

                           ! Non-Optimized Parameters !
 Normal termination of Gaussian 16 at Thu Aug  4 16:15:10 2022.
