 Gaussian 16, Revision B.01,
 Gaussian 16:  ES64L-G16RevB.01 20-Dec-2017

 ----------------------------------------------------------------------
 #T wB97XD/def2svpp opt=tight freq int(grid=ultrafine) scf=(verytight,q
 c) Volume=tight
 ----------------------------------------------------------------------
 -------
 Monomer
 -------
 Symbolic Z-matrix:
 Charge =  0 Multiplicity = 1

 SCF Done:  E(RwB97XD) =  -7992.58304147     a.u. after    7 cycles
 SCF Done:  E(RwB97XD) =  -7992.58400797     a.u. after    9 cycles
 SCF Done:  E(RwB97XD) =  -7992.58419856     a.u. after    8 cycles
 SCF Done:  E(RwB97XD) =  -7992.58424607     a.u. after    7 cycles
 SCF Done:  E(RwB97XD) =  -7992.58426230     a.u. after    4 cycles
 SCF Done:  E(RwB97XD) =  -7992.58426306     a.u. after    3 cycles
 SCF Done:  E(RwB97XD) =  -7992.58426337     a.u. after    2 cycles
 SCF Done:  E(RwB97XD) =  -7992.58426350     a.u. after    2 cycles
 SCF Done:  E(RwB97XD) =  -7992.58426357     a.u. after    2 cycles
 SCF Done:  E(RwB97XD) =  -7992.58426363     a.u. after    2 cycles
 SCF Done:  E(RwB97XD) =  -7992.58426370     a.u. after    2 cycles
 SCF Done:  E(RwB97XD) =  -7992.58426371     a.u. after    2 cycles
 SCF Done:  E(RwB97XD) =  -7992.58426371     a.u. after    2 cycles
 SCF Done:  E(RwB97XD) =  -7992.58426371     a.u. after    2 cycles
 Optimization completed.
    -- Stationary point found.
 Normal termination of Gaussian 16 at Fri Mar 29 15:44:22 2024.

 ---------------------------------------------------------------------
 #T Geom=AllCheck Guess=TCheck SCRF=Check GenChk RwB97XD/def2SVPP Freq
 ---------------------------------------------------------------------
 Structure from the checkpoint file:  "monomer.chk"
 -------
 Monomer
 -------
 Charge =  0 Multiplicity = 1

                         Standard orientation:
 ---------------------------------------------------------------------
 Center     Atomic      Atomic             Coordinates (Angstroms)
 Number     Number       Type             X           Y           Z
 ---------------------------------------------------------------------
      1          8           0        1.172919    0.029567    2.662810
      2          6           0        0.689381    0.875998    1.650857
      3          6           0        0.202425    0.006617    0.477981
      4          6           0        1.334814   -0.924928    0.006862
      5         35           0        2.926407   -0.016683   -0.657153
      6          6           0       -0.939602   -0.870920    1.021584
      7         35           0       -1.737424   -2.087096   -0.274791
      8          6           0       -0.244208    0.884279   -0.697431
      9         35           0       -1.727771    2.085958   -0.308309
     10          1           0        1.559686    0.563910    3.367079
     11          1           0        1.479905    1.556084    1.276921
     12          1           0       -0.151220    1.499587    2.011437
     13          1           0        0.996409   -1.574373   -0.811603
     14          1           0        1.677064   -1.540101    0.849019
     15          1           0       -1.764247   -0.237128    1.376678
     16          1           0       -0.578924   -1.490577    1.852387
     17          1           0       -0.581475    0.258831   -1.536037
     18          1           0        0.580160    1.524699   -1.038650
 ---------------------------------------------------------------------

 SCF Done:  E(RwB97XD) =  -7992.58426371     a.u. after    1 cycles

 The electronic state is 1-A.
 Alpha  occ. eigenvalues -- -483.05728-483.05670-483.05626 -62.63942 -62.63883
 Alpha  occ. eigenvalues --  -62.63841 -56.44711 -56.44651 -56.44609 -56.44355
 Alpha  occ. eigenvalues --  -56.44345 -56.44296 -56.44286 -56.44254 -56.44243
 Alpha  occ. eigenvalues --  -19.27300 -10.35943 -10.35739 -10.35630 -10.35603
 Alpha  occ. eigenvalues --  -10.35353  -8.80887  -8.80827  -8.80786  -6.63428
 Alpha  occ. eigenvalues --   -6.63363  -6.63323  -6.62133  -6.62094  -6.62076
 Alpha  occ. eigenvalues --   -6.62037  -6.62036  -6.61994  -2.73793  -2.73728
 Alpha  occ. eigenvalues --   -2.73688  -2.73433  -2.73402  -2.73371  -2.73340
 Alpha  occ. eigenvalues --   -2.73332  -2.73298  -2.72370  -2.72369  -2.72314
 Alpha  occ. eigenvalues --   -2.72314  -2.72273  -2.72273  -1.13781  -0.97504
 Alpha  occ. eigenvalues --   -0.90687  -0.90358  -0.85987  -0.78274  -0.77044
 Alpha  occ. eigenvalues --   -0.75459  -0.64565  -0.63370  -0.59556  -0.56984
 Alpha  occ. eigenvalues --   -0.55320  -0.54504  -0.50727  -0.49576  -0.48451
 Alpha  occ. eigenvalues --   -0.46887  -0.45655  -0.44698  -0.42778  -0.38522
 Alpha  occ. eigenvalues --   -0.37687  -0.36992  -0.36606  -0.35785  -0.35725
 Alpha  occ. eigenvalues --   -0.35572
 Alpha virt. eigenvalues --    0.07054   0.07510   0.07580   0.12642   0.15352
 Alpha virt. eigenvalues --    0.16921   0.17039   0.17577   0.19940   0.21166
 Alpha virt. eigenvalues --    0.22297   0.23619   0.24985   0.26625   0.27737

 Mulliken charges:
               1
     1  O   -0.485335
     2  C    0.063511
     3  C   -0.284038
     4  C   -0.191932
     5  Br  -0.122136
     6  C   -0.193360
     7  Br  -0.116354
     8  C   -0.187360
     9  Br  -0.116167
    10  H    0.330397
    11  H    0.116915
    12  H    0.114932
    13  H    0.176278
    14  H    0.183842
    15  H    0.174384
    16  H    0.182917
    17  H    0.176175
    18  H    0.177332
 Sum of Mulliken charges =  -0.00000

 Dipole moment (field-independent basis, Debye):
    X=              0.9210    Y=              0.8748    Z=              2.0362  Tot=              2.3999
  Exact polarizability: 113.625   1.569  99.928  -0.109   3.719  87.803
 Approx polarizability: 123.455   2.080 115.031  -1.340   4.760 106.880
   1 Symmetry operations used in ECPInt.
 ECPInt:  NShTT=    4095 NPrTT=   19926 LenC2=    3869 LenP2D=   13341.
 LDataN:  DoStor=T MaxTD1= 6 Len=  172
 Calling FoFJK, ICntrl=    100127 FMM=F ISym2X=0 I1Cent= 0 IOpClX= 0 NMat=1 NMatS=1 NMatT=0.
 Full mass-weighted force constant matrix:
 Low frequencies ---   -6.9911   -4.3626   -2.4808   -0.0079   -0.0076   -0.0051
 Low frequencies ---   38.5918   62.7240   85.1933
 Diagonal vibrational polarizability:

                      1                      2                      3
                      A                      A                      A
 Frequencies --     38.5813                62.7182                85.1907
 Red. masses --     16.6334                 8.2250                15.7949
 Frc consts  --      0.0146                 0.0191                 0.0675
 IR Inten    --      0.5467                 0.6308                 0.6549

                      4                      5                      6
                      A                      A                      A
 Frequencies --    112.8348               114.6473               177.9923
 Red. masses --      5.4227                 7.0801                 6.5426
 Frc consts  --      0.0407                 0.0548                 0.1221
 IR Inten    --      1.3630                 2.0218                 4.5206

                      7                      8                      9
                      A                      A                      A
 Frequencies --    201.4921               233.1785               252.0510
 Red. masses --      3.4913                 1.3142                 2.2626
 Frc consts  --      0.0835                 0.0421                 0.0847
 IR Inten    --      5.8065               105.4935                11.2586

                     10                     11                     12
                      A                      A                      A
 Frequencies --    299.1308               320.0636               385.7698
 Red. masses --      2.4413                 2.5419                 3.4497
 Frc consts  --      0.1287                 0.1534                 0.3025
 IR Inten    --      2.1178                 5.7401                 5.9490

                     13                     14                     15
                      A                      A                      A
 Frequencies --    433.5874               563.4628               657.0449
 Red. masses --      3.4109                 3.5397                 4.4204
 Frc consts  --      0.3778                 0.6621                 1.1243
 IR Inten    --      5.8214                19.8911                 4.5193

                     16                     17                     18
                      A                      A                      A
 Frequencies --    711.4674               724.1026               797.1339
 Red. masses --      3.9792                 4.6635                 3.3314
 Frc consts  --      1.1867                 1.4407                 1.2472
 IR Inten    --     28.0591                27.4967                 0.3402

                     19                     20                     21
                      A                      A                      A
 Frequencies --    846.1554               862.6199               889.7786
 Red. masses --      1.6518                 1.7143                 1.7546
 Frc consts  --      0.6968                 0.7516                 0.8184
 IR Inten    --      8.1963                24.8290                12.7455

                     22                     23                     24
                      A                      A                      A
 Frequencies --    976.6994              1077.8385              1105.8601
 Red. masses --      1.6901                 1.6123                 1.6601
 Frc consts  --      0.9499                 1.1036                 1.1961
 IR Inten    --      2.6639                 1.4792                12.8847

                     25                     26                     27
                      A                      A                      A
 Frequencies --   1151.3802              1167.3715              1208.7595
 Red. masses --      4.2687                 1.4280                 1.1343
 Frc consts  --      3.3341                 1.1465                 0.9765
 IR Inten    --     61.3734                 0.3943                36.5668

                     28                     29                     30
                      A                      A                      A
 Frequencies --   1215.7288              1259.4927              1276.6962
 Red. masses --      1.4254                 1.1636                 1.2048
 Frc consts  --      1.2412                 1.0876                 1.1570
 IR Inten    --      1.9871                 7.3112                41.5897

                     31                     32                     33
                      A                      A                      A
 Frequencies --   1296.5246              1330.9053              1342.6317
 Red. masses --      1.1797                 1.5288                 1.6624
 Frc consts  --      1.1684                 1.5955                 1.7656
 IR Inten    --     15.1697                20.6943                26.6908

                     34                     35                     36
                      A                      A                      A
 Frequencies --   1348.7272              1454.0556              1464.3876
 Red. masses --      1.5726                 1.1658                 1.1688
 Frc consts  --      1.6854                 1.4522                 1.4767
 IR Inten    --     13.7804                 6.4233                12.7318

                     37                     38                     39
                      A                      A                      A
 Frequencies --   1477.3626              1478.2420              1529.4357
 Red. masses --      1.1869                 1.1888                 1.0849
 Frc consts  --      1.5262                 1.5306                 1.4953
 IR Inten    --     17.9257                 7.8591                10.9758

                     40                     41                     42
                      A                      A                      A
 Frequencies --   3018.0655              3070.1810              3116.9097
 Red. masses --      1.0584                 1.1094                 1.0604
 Frc consts  --      5.6801                 6.1611                 6.0699
 IR Inten    --     26.6264                24.8106                 2.7305

                     43                     44                     45
                      A                      A                      A
 Frequencies --   3120.2473              3124.8476              3192.2242
 Red. masses --      1.0605                 1.0594                 1.1103
 Frc consts  --      6.0834                 6.0949                 6.6665
 IR Inten    --      2.1358                 1.8624                 0.0145

                     46                     47                     48
                      A                      A                      A
 Frequencies --   3198.6540              3203.1567              3800.3655
 Red. masses --      1.1103                 1.1112                 1.0667
 Frc consts  --      6.6934                 6.7173                 9.0773
 IR Inten    --      0.2166                 0.6226                69.5239

 Optimization completed.
    -- Stationary point found.
 Normal termination of Gaussian 16 at Fri Mar 29 15:47:31 2024.
