 Gaussian 16, Revision B.01,
 Gaussian 16:  ES64L-G16RevB.01 20-Dec-2017

 ----------------------------------------------------------------------
 #T wB97XD/def2svpp opt=tight freq int(grid=ultrafine) scf=(verytight,q
 c)
 ----------------------------------------------------------------------
 -------
 comment
 -------
 Symbolic Z-matrix:
 Charge =  1 Multiplicity = 2

 SCF Done:  E(UwB97XD) =  -593.645012144     a.u. after   11 cycles
 SCF Done:  E(UwB97XD) =  -593.661015644     a.u. after   11 cycles
 SCF Done:  E(UwB97XD) =  -593.668245964     a.u. after   13 cycles
 SCF Done:  E(UwB97XD) =  -593.670008030     a.u. after    8 cycles
 SCF Done:  E(UwB97XD) =  -593.671174012     a.u. after    9 cycles
 SCF Done:  E(UwB97XD) =  -593.671473342     a.u. after    7 cycles
 SCF Done:  E(UwB97XD) =  -593.671522326     a.u. after    5 cycles
 SCF Done:  E(UwB97XD) =  -593.671536589     a.u. after    4 cycles
 SCF Done:  E(UwB97XD) =  -593.671538726     a.u. after    3 cycles
 SCF Done:  E(UwB97XD) =  -593.671538868     a.u. after    2 cycles
 SCF Done:  E(UwB97XD) =  -593.671538925     a.u. after    2 cycles
 SCF Done:  E(UwB97XD) =  -593.671538930     a.u. after    2 cycles
 SCF Done:  E(UwB97XD) =  -593.671538937     a.u. after    2 cycles
 SCF Done:  E(UwB97XD) =  -593.671538936     a.u. after    2 cycles
 SCF Done:  E(UwB97XD) =  -593.671538937     a.u. after    2 cycles
 Optimization completed.
    -- Stationary point found.
 Normal termination of Gaussian 16 at Mon Jul 10 19:32:17 2023.

 ---------------------------------------------------------------------
 #T Geom=AllCheck Guess=TCheck SCRF=Check GenChk UwB97XD/def2SVPP Freq
 ---------------------------------------------------------------------
 Structure from the checkpoint file:  "6.chk"
 -------
 comment
 -------
 Charge =  1 Multiplicity = 2

                         Standard orientation:
 ---------------------------------------------------------------------
 Center     Atomic      Atomic             Coordinates (Angstroms)
 Number     Number       Type             X           Y           Z
 ---------------------------------------------------------------------
      1          9           0       -1.615105   -0.084816    1.516960
      2          6           0       -0.325815   -0.001064    1.511547
      3          6           0        0.221678    0.007178   -0.267612
      4          6           0       -0.152038    1.393968   -0.723309
      5          9           0        0.654107    2.313409   -0.139641
      6          6           0        1.701130   -0.257136   -0.118008
      7          9           0        1.911264   -1.542986    0.253703
      8          6           0       -0.572452   -1.110087   -0.894440
      9          9           0       -1.835999   -0.717430   -1.152173
     10          1           0        0.182849   -0.917569    1.852133
     11          1           0        0.055332    0.990453    1.808184
     12          1           0       -1.212094    1.628478   -0.525711
     13          1           0       -0.011998    1.418489   -1.827218
     14          1           0        2.187430    0.432528    0.592636
     15          1           0        2.156598   -0.075764   -1.116151
     16          1           0       -0.566938   -2.035248   -0.291292
     17          1           0       -0.054598   -1.352122   -1.851285
 ---------------------------------------------------------------------

 SCF Done:  E(UwB97XD) =  -593.671538937     a.u. after    1 cycles

 The electronic state is 2-A.
 Alpha  occ. eigenvalues --  -25.08662 -25.00694 -25.00534 -25.00300 -10.65541
 Alpha  occ. eigenvalues --  -10.59885 -10.58956 -10.58830 -10.58672  -1.58688
 Alpha  occ. eigenvalues --   -1.49681  -1.49382  -1.49282  -1.16229  -1.03009
 Alpha  occ. eigenvalues --   -1.00544  -1.00467  -0.89455  -0.86601  -0.86293
 Alpha  occ. eigenvalues --   -0.84994  -0.82307  -0.82111  -0.78962  -0.78443
 Alpha  occ. eigenvalues --   -0.77967  -0.77472  -0.75881  -0.75684  -0.69604
 Alpha  occ. eigenvalues --   -0.69081  -0.67242  -0.64160  -0.63798  -0.62804
 Alpha  occ. eigenvalues --   -0.62738  -0.58840
 Alpha virt. eigenvalues --   -0.11784  -0.04371  -0.04194  -0.03167  -0.01679
 Alpha virt. eigenvalues --    0.00841   0.01568   0.03591   0.03960   0.04930
 Alpha virt. eigenvalues --    0.05609   0.06013   0.09173   0.12485   0.13170

  Beta  occ. eigenvalues --  -25.08226 -25.00664 -25.00504 -25.00232 -10.65074
  Beta  occ. eigenvalues --  -10.59505 -10.58931 -10.58804 -10.58652  -1.57644
  Beta  occ. eigenvalues --   -1.49581  -1.49292  -1.49151  -1.14794  -1.01108
  Beta  occ. eigenvalues --   -1.00150  -1.00012  -0.88049  -0.85991  -0.85337
  Beta  occ. eigenvalues --   -0.83365  -0.82084  -0.81648  -0.78085  -0.77818
  Beta  occ. eigenvalues --   -0.77422  -0.76076  -0.75682  -0.75403  -0.68776
  Beta  occ. eigenvalues --   -0.68435  -0.65663  -0.63363  -0.62887  -0.62451
  Beta  occ. eigenvalues --   -0.62242
  Beta virt. eigenvalues --   -0.35704  -0.07363  -0.04085  -0.03910  -0.03035
  Beta virt. eigenvalues --   -0.01328   0.01155   0.02123   0.03755   0.04203
  Beta virt. eigenvalues --    0.05464   0.05931   0.06426   0.09445   0.12884

 Mulliken charges and spin densities:
               1          2
     1  F   -0.072062   0.118167
     2  C    0.130995   0.330004
     3  C   -0.558685   0.298010
     4  C    0.150160   0.001769
     5  F   -0.218042   0.009062
     6  C    0.145016   0.003969
     7  F   -0.217184   0.009017
     8  C    0.160729   0.006547
     9  F   -0.204443   0.018943
    10  H    0.229298   0.005758
    11  H    0.231448   0.007725
    12  H    0.202950   0.011831
    13  H    0.210808   0.051510
    14  H    0.193276   0.008143
    15  H    0.209615   0.049660
    16  H    0.195978   0.013135
    17  H    0.210143   0.056750
 Sum of Mulliken charges =   1.00000   1.00000

 Dipole moment (field-independent basis, Debye):
    X=              1.3903    Y=             -0.0078    Z=              0.2733  Tot=              1.4169
  Exact polarizability:  60.655   0.927  58.664  -1.934   0.812  63.095
 Approx polarizability:  64.373   0.695  60.077  -2.396   0.456  64.529
                          Isotropic Fermi Contact Couplings
        Atom                 a.u.       MegaHertz       Gauss      10(-4) cm-1
     1  F(19)              0.07241     304.64454     108.70475     101.61848
     2  C(13)              0.06286      70.66119      25.21367      23.57003
     3  C(13)              0.01992      22.39475       7.99100       7.47008
     4  C(13)             -0.00817      -9.18431      -3.27719      -3.06356
     5  F(19)              0.00432      18.18160       6.48765       6.06473
     6  C(13)             -0.00570      -6.41179      -2.28789      -2.13874

                      1                      2                      3
                      A                      A                      A
 Frequencies --     92.5954               107.5309               116.9905
 Red. masses --     10.3186                 5.1415                 6.7054
 Frc consts  --      0.0521                 0.0350                 0.0541
 IR Inten    --      1.3948                15.3328                 8.0663

                      4                      5                      6
                      A                      A                      A
 Frequencies --    149.0712               183.5457               198.3064
 Red. masses --      3.5778                 6.9460                 4.4783
 Frc consts  --      0.0468                 0.1379                 0.1038
 IR Inten    --      7.8801                 5.9793                 7.2059

                      7                      8                      9
                      A                      A                      A
 Frequencies --    230.3981               286.4910               294.5231
 Red. masses --      4.4637                 3.1059                 2.4628
 Frc consts  --      0.1396                 0.1502                 0.1259
 IR Inten    --      0.2076                 1.9695                 9.1478

                     10                     11                     12
                      A                      A                      A
 Frequencies --    338.5717               413.3985               439.3081
 Red. masses --     11.0020                 5.0932                 2.0114
 Frc consts  --      0.7431                 0.5128                 0.2287
 IR Inten    --      1.5500                45.9018                 2.4328

                     13                     14                     15
                      A                      A                      A
 Frequencies --    579.0642               592.9744               723.0096
 Red. masses --      5.3348                 5.5225                 1.1592
 Frc consts  --      1.0540                 1.1441                 0.3570
 IR Inten    --      7.0608                 9.7137                17.1688

                     16                     17                     18
                      A                      A                      A
 Frequencies --    797.4548               850.5351               862.9223
 Red. masses --      3.2547                 1.4354                 1.4712
 Frc consts  --      1.2195                 0.6118                 0.6455
 IR Inten    --      0.0543                24.2389                25.0209

                     19                     20                     21
                      A                      A                      A
 Frequencies --   1100.2339              1144.5019              1147.1668
 Red. masses --      2.0764                 4.1087                 7.4788
 Frc consts  --      1.4809                 3.1710                 5.7987
 IR Inten    --      0.8736                44.7762                88.3984

                     22                     23                     24
                      A                      A                      A
 Frequencies --   1159.9647              1195.5429              1204.6894
 Red. masses --      6.3720                 3.0780                 2.9028
 Frc consts  --      5.0514                 2.5921                 2.4821
 IR Inten    --     31.7819                41.6278                66.8285

                     25                     26                     27
                      A                      A                      A
 Frequencies --   1218.5151              1251.5160              1253.0427
 Red. masses --      1.3439                 1.1404                 1.1565
 Frc consts  --      1.1757                 1.0524                 1.0699
 IR Inten    --     39.0635                 7.4321                 6.6026

                     28                     29                     30
                      A                      A                      A
 Frequencies --   1262.9933              1290.5064              1310.5609
 Red. masses --      1.1843                 1.1331                 3.1840
 Frc consts  --      1.1131                 1.1119                 3.2221
 IR Inten    --     10.3054                12.9834               158.9027

                     31                     32                     33
                      A                      A                      A
 Frequencies --   1393.0794              1399.3091              1404.2513
 Red. masses --      1.2725                 1.3084                 1.3358
 Frc consts  --      1.4550                 1.5094                 1.5519
 IR Inten    --     12.3422                10.2918                 3.3767

                     34                     35                     36
                      A                      A                      A
 Frequencies --   1457.2729              1463.9495              1472.3563
 Red. masses --      1.2354                 1.1639                 1.1467
 Frc consts  --      1.5458                 1.4697                 1.4646
 IR Inten    --     49.4598                40.0561                29.4033

                     37                     38                     39
                      A                      A                      A
 Frequencies --   1531.9507              2970.1708              2989.3972
 Red. masses --      1.2747                 1.0667                 1.0667
 Frc consts  --      1.7626                 5.5446                 5.6166
 IR Inten    --     10.9633                87.0563                70.7846

                     40                     41                     42
                      A                      A                      A
 Frequencies --   3008.9594              3077.0244              3104.5773
 Red. masses --      1.0689                 1.0484                 1.0925
 Frc consts  --      5.7021                 5.8485                 6.2042
 IR Inten    --     42.9007                18.1367                 2.3591

                     43                     44                     45
                      A                      A                      A
 Frequencies --   3117.8070              3122.0038              3210.4461
 Red. masses --      1.0948                 1.0966                 1.1272
 Frc consts  --      6.2700                 6.2974                 6.8449
 IR Inten    --      2.2281                 1.5439                11.4755

                           ! Non-Optimized Parameters !
 Normal termination of Gaussian 16 at Mon Jul 10 19:34:45 2023.
