 Gaussian 16, Revision B.01,
 Gaussian 16:  ES64L-G16RevB.01 20-Dec-2017

 ----------------------------------------------------------------------
 #T wB97XD/def2svpp opt=tight freq int(grid=ultrafine) scf=(verytight,q
 c)
 ----------------------------------------------------------------------
 -------
 comment
 -------
 Symbolic Z-matrix:
 Charge =  1 Multiplicity = 2

 SCF Done:  E(UwB97XD) =  -363.477328846     a.u. after   14 cycles
 SCF Done:  E(UwB97XD) =  -363.492371635     a.u. after   24 cycles
 SCF Done:  E(UwB97XD) =  -363.501646216     a.u. after   18 cycles
 SCF Done:  E(UwB97XD) =  -363.505698814     a.u. after    9 cycles
 SCF Done:  E(UwB97XD) =  -363.508367091     a.u. after    9 cycles
 SCF Done:  E(UwB97XD) =  -363.509497883     a.u. after    9 cycles
 SCF Done:  E(UwB97XD) =  -363.510045268     a.u. after    9 cycles
 SCF Done:  E(UwB97XD) =  -363.510303953     a.u. after    9 cycles
 SCF Done:  E(UwB97XD) =  -363.510500125     a.u. after    7 cycles
 SCF Done:  E(UwB97XD) =  -363.510714529     a.u. after    9 cycles
 SCF Done:  E(UwB97XD) =  -363.519973610     a.u. after    3 cycles
 SCF Done:  E(UwB97XD) =  -363.519974448     a.u. after    3 cycles
 SCF Done:  E(UwB97XD) =  -363.519975385     a.u. after    3 cycles
 SCF Done:  E(UwB97XD) =  -363.519975991     a.u. after    3 cycles
 SCF Done:  E(UwB97XD) =  -363.519976062     a.u. after    2 cycles
 SCF Done:  E(UwB97XD) =  -363.519976057     a.u. after    2 cycles
 SCF Done:  E(UwB97XD) =  -363.519976055     a.u. after    2 cycles
 SCF Done:  E(UwB97XD) =  -363.519976060     a.u. after    2 cycles
 SCF Done:  E(UwB97XD) =  -363.519976057     a.u. after    2 cycles
 Optimization completed.
    -- Stationary point found.
 Normal termination of Gaussian 16 at Mon Jul 10 19:53:41 2023.

 ---------------------------------------------------------------------
 #T Geom=AllCheck Guess=TCheck SCRF=Check GenChk UwB97XD/def2SVPP Freq
 ---------------------------------------------------------------------
 Structure from the checkpoint file:  "36.chk"
 -------
 comment
 -------
 Charge =  1 Multiplicity = 2

                         Standard orientation:
 ---------------------------------------------------------------------
 Center     Atomic      Atomic             Coordinates (Angstroms)
 Number     Number       Type             X           Y           Z
 ---------------------------------------------------------------------
      1          6           0        2.040165   -0.035317   -0.505921
      2          6           0        0.630476    0.132219    0.041135
      3          7           0        0.573394    0.484360    1.364212
      4          6           0       -0.309832    1.017626   -0.786986
      5          8           0       -1.390705    1.339212    0.032560
      6          6           0       -0.076015   -1.491502   -0.092252
      7          8           0       -1.410576   -1.459234   -0.088148
      8          1           0        2.589421    0.915499   -0.404746
      9          1           0        2.012918   -0.306642   -1.572791
     10          1           0        2.596420   -0.818182    0.037031
     11          1           0       -0.257889    0.976880    1.701152
     12          1           0        1.323705    0.262688    2.016289
     13          1           0       -0.609578    0.494209   -1.711375
     14          1           0        0.271326    1.918680   -1.070487
     15          1           0       -2.133283    1.691328   -0.477697
     16          1           0        0.403229   -2.051812    0.726602
     17          1           0        0.284996   -1.783702   -1.089007
     18          1           0       -1.793531   -1.467438    0.804393
 ---------------------------------------------------------------------

 SCF Done:  E(UwB97XD) =  -363.519976057     a.u. after    1 cycles

 The electronic state is 2-A.
 Alpha  occ. eigenvalues --  -19.47794 -19.43325 -14.68415 -10.56214 -10.55788
 Alpha  occ. eigenvalues --  -10.52300 -10.46835  -1.35264  -1.30235  -1.23295
 Alpha  occ. eigenvalues --   -1.05558  -0.96768  -0.96446  -0.87887  -0.83792
 Alpha  occ. eigenvalues --   -0.82252  -0.79062  -0.77238  -0.74581  -0.72645
 Alpha  occ. eigenvalues --   -0.68433  -0.66175  -0.65476  -0.64326  -0.63088
 Alpha  occ. eigenvalues --   -0.60843  -0.60617  -0.54850  -0.50320
 Alpha virt. eigenvalues --   -0.04698  -0.02154  -0.01503  -0.00170   0.00616
 Alpha virt. eigenvalues --    0.02753   0.03480   0.04783   0.06980   0.07055
 Alpha virt. eigenvalues --    0.08322   0.08952   0.11287   0.12744   0.15409

  Beta  occ. eigenvalues --  -19.47398 -19.43256 -14.67563 -10.55840 -10.55658
  Beta  occ. eigenvalues --  -10.52256 -10.46790  -1.34320  -1.29978  -1.21503
  Beta  occ. eigenvalues --   -1.04328  -0.96213  -0.95606  -0.87029  -0.83193
  Beta  occ. eigenvalues --   -0.81537  -0.78622  -0.76253  -0.73475  -0.71984
  Beta  occ. eigenvalues --   -0.67457  -0.65646  -0.64563  -0.63688  -0.61788
  Beta  occ. eigenvalues --   -0.60294  -0.56388  -0.53292
  Beta virt. eigenvalues --   -0.26494  -0.04406  -0.01818  -0.00981   0.00460
  Beta virt. eigenvalues --    0.01686   0.03092   0.03859   0.05090   0.07168
  Beta virt. eigenvalues --    0.07313   0.08641   0.09264   0.11603   0.13119

 Mulliken charges and spin densities:
               1          2
     1  C   -0.280334   0.020419
     2  C   -0.318439   0.071971
     3  N   -0.299378   0.489865
     4  C    0.091601   0.021845
     5  O   -0.495367   0.023152
     6  C    0.053512   0.207784
     7  O   -0.338963   0.148104
     8  H    0.191787   0.011669
     9  H    0.175759  -0.001322
    10  H    0.170883   0.000867
    11  H    0.325699  -0.017742
    12  H    0.309042  -0.019128
    13  H    0.153120  -0.001494
    14  H    0.162992   0.020753
    15  H    0.368774  -0.000517
    16  H    0.172687   0.008579
    17  H    0.187625   0.020374
    18  H    0.369000  -0.005181
 Sum of Mulliken charges =   1.00000   1.00000

 Dipole moment (field-independent basis, Debye):
    X=              1.0319    Y=             -0.2553    Z=              1.8379  Tot=              2.1232
  Exact polarizability:  63.796   3.400  61.686   4.204   4.510  59.295
 Approx polarizability:  65.191   3.605  60.774   3.898   6.058  64.399
                          Isotropic Fermi Contact Couplings
        Atom                 a.u.       MegaHertz       Gauss      10(-4) cm-1
     1  C(13)              0.01729      19.43521       6.93497       6.48289
     2  C(13)             -0.02331     -26.20042      -9.34896      -8.73952
     3  N(14)              0.14382      46.46828      16.58104      15.50015
     4  C(13)              0.01061      11.92562       4.25536       3.97796
     5  O(17)              0.01111      -6.73388      -2.40282      -2.24618
     6  C(13)              0.08976     100.91147      36.00772      33.66044

                      1                      2                      3
                      A                      A                      A
 Frequencies --     90.7923               152.5423               195.0339
 Red. masses --      2.5236                 1.9808                 2.0914
 Frc consts  --      0.0123                 0.0272                 0.0469
 IR Inten    --     19.2885                17.0057                55.5100

                      4                      5                      6
                      A                      A                      A
 Frequencies --    228.2251               257.8480               278.0211
 Red. masses --      1.1004                 2.6250                 2.3620
 Frc consts  --      0.0338                 0.1028                 0.1076
 IR Inten    --      3.8092                19.0505                24.7537

                      7                      8                      9
                      A                      A                      A
 Frequencies --    313.8333               362.3290               397.3791
 Red. masses --      3.1454                 2.7346                 2.2007
 Frc consts  --      0.1825                 0.2115                 0.2047
 IR Inten    --      8.8935                 6.6971                21.4278

                     10                     11                     12
                      A                      A                      A
 Frequencies --    419.6669               462.1213               498.5179
 Red. masses --      2.6050                 1.4665                 1.6290
 Frc consts  --      0.2703                 0.1845                 0.2385
 IR Inten    --     14.2499               158.2076                29.0705

                     13                     14                     15
                      A                      A                      A
 Frequencies --    538.5061               587.1682               638.4978
 Red. masses --      1.7213                 3.6160                 1.2285
 Frc consts  --      0.2941                 0.7345                 0.2951
 IR Inten    --     96.5795                47.2076                59.5953

                     16                     17                     18
                      A                      A                      A
 Frequencies --    834.5985               924.7171               959.1259
 Red. masses --      2.8283                 1.2432                 1.6357
 Frc consts  --      1.1607                 0.6264                 0.8866
 IR Inten    --     22.4511                 5.3639                 0.6975

                     19                     20                     21
                      A                      A                      A
 Frequencies --   1023.2349              1034.2279              1070.5798
 Red. masses --      1.3706                 1.4537                 1.5313
 Frc consts  --      0.8455                 0.9161                 1.0341
 IR Inten    --      2.3887                23.0597                38.1104

                     22                     23                     24
                      A                      A                      A
 Frequencies --   1165.2442              1168.6706              1220.1037
 Red. masses --      4.3276                 1.0413                 1.2465
 Frc consts  --      3.4620                 0.8379                 1.0933
 IR Inten    --     55.2689                83.6495                88.5293

                     25                     26                     27
                      A                      A                      A
 Frequencies --   1253.7572              1290.5667              1298.8640
 Red. masses --      1.4764                 1.4818                 1.6727
 Frc consts  --      1.3674                 1.4542                 1.6627
 IR Inten    --     98.7054                62.6517                57.8627

                     28                     29                     30
                      A                      A                      A
 Frequencies --   1331.7356              1394.1957              1407.1879
 Red. masses --      1.9464                 1.5943                 1.6655
 Frc consts  --      2.0338                 1.8259                 1.9432
 IR Inten    --      7.0486                 8.3623                22.7591

                     31                     32                     33
                      A                      A                      A
 Frequencies --   1424.0044              1454.7648              1481.9602
 Red. masses --      1.3857                 1.4681                 1.0521
 Frc consts  --      1.6555                 1.8306                 1.3614
 IR Inten    --      4.0435                 1.3313                17.2561

                     34                     35                     36
                      A                      A                      A
 Frequencies --   1494.0799              1518.1024              1522.1162
 Red. masses --      1.0974                 1.1235                 1.2166
 Frc consts  --      1.4433                 1.5256                 1.6607
 IR Inten    --     15.2092                 9.0659                 5.3204

                     37                     38                     39
                      A                      A                      A
 Frequencies --   1627.9463              3020.0587              3050.8062
 Red. masses --      1.2739                 1.0653                 1.0379
 Frc consts  --      1.9892                 5.7248                 5.6914
 IR Inten    --     73.5177                11.2186                 0.3991

                     40                     41                     42
                      A                      A                      A
 Frequencies --   3085.9917              3104.7918              3149.3884
 Red. masses --      1.0555                 1.1037                 1.1061
 Frc consts  --      5.9221                 6.2685                 6.4642
 IR Inten    --      6.8104                 6.0122                 0.5946

                     43                     44                     45
                      A                      A                      A
 Frequencies --   3165.7938              3194.1009              3489.3061
 Red. masses --      1.1065                 1.1195                 1.0498
 Frc consts  --      6.5335                 6.7292                 7.5304
 IR Inten    --      0.0954                 4.1575               197.5158

                     46                     47                     48
                      A                      A                      A
 Frequencies --   3623.9157              3723.9647              3781.1577
 Red. masses --      1.1040                 1.0668                 1.0675
 Frc consts  --      8.5426                 8.7169                 8.9920
 IR Inten    --    131.1412               168.5433               188.0351

 Optimization completed.
    -- Stationary point found.
 Normal termination of Gaussian 16 at Mon Jul 10 19:55:46 2023.
