 Gaussian 16, Revision B.01,
 Gaussian 16:  ES64L-G16RevB.01 20-Dec-2017

 ----------------------------------------------------------------------
 #T wB97XD/def2svpp opt=tight freq int(grid=ultrafine) scf=(verytight,q
 c) Volume=tight
 ----------------------------------------------------------------------
 -----
 Dimer
 -----
 Symbolic Z-matrix:
 Charge =  0 Multiplicity = 1

 SCF Done:  E(RwB97XD) =  -15985.1788598     a.u. after    7 cycles
 SCF Done:  E(RwB97XD) =  -15985.1805237     a.u. after   13 cycles
 SCF Done:  E(RwB97XD) =  -15985.1810196     a.u. after   13 cycles
 SCF Done:  E(RwB97XD) =  -15985.1822497     a.u. after   11 cycles
 SCF Done:  E(RwB97XD) =  -15985.1789361     a.u. after   13 cycles
 SCF Done:  E(RwB97XD) =  -15985.1807566     a.u. after   15 cycles
 SCF Done:  E(RwB97XD) =  -15985.1824706     a.u. after    4 cycles
 SCF Done:  E(RwB97XD) =  -15985.1825863     a.u. after   11 cycles
 SCF Done:  E(RwB97XD) =  -15985.1826726     a.u. after    9 cycles
 SCF Done:  E(RwB97XD) =  -15985.1828004     a.u. after    7 cycles
 SCF Done:  E(RwB97XD) =  -15985.1828939     a.u. after    2 cycles
 SCF Done:  E(RwB97XD) =  -15985.1828942     a.u. after    2 cycles
 SCF Done:  E(RwB97XD) =  -15985.1828952     a.u. after    3 cycles
 SCF Done:  E(RwB97XD) =  -15985.1828952     a.u. after    2 cycles
 SCF Done:  E(RwB97XD) =  -15985.1828953     a.u. after    2 cycles
 SCF Done:  E(RwB97XD) =  -15985.1828953     a.u. after    2 cycles
 SCF Done:  E(RwB97XD) =  -15985.1828953     a.u. after    2 cycles
 SCF Done:  E(RwB97XD) =  -15985.1828953     a.u. after    2 cycles
 SCF Done:  E(RwB97XD) =  -15985.1828953     a.u. after    2 cycles
 Optimization completed.
    -- Stationary point found.
 Normal termination of Gaussian 16 at Mon Apr  1 19:03:31 2024.

 ---------------------------------------------------------------------
 #T Geom=AllCheck Guess=TCheck SCRF=Check GenChk RwB97XD/def2SVPP Freq
 ---------------------------------------------------------------------
 Structure from the checkpoint file:  "dimer.chk"
 -----
 Dimer
 -----
 Charge =  0 Multiplicity = 1

                         Standard orientation:
 ---------------------------------------------------------------------
 Center     Atomic      Atomic             Coordinates (Angstroms)
 Number     Number       Type             X           Y           Z
 ---------------------------------------------------------------------
      1          8           0        5.417325   -1.341665   -0.868965
      2          6           0        4.420591   -1.489255    0.110463
      3          6           0        3.292520   -0.482700   -0.180864
      4          6           0        3.867829    0.943050   -0.272072
      5         35           0        4.752751    1.578651    1.343493
      6          6           0        2.723839   -0.860652   -1.559114
      7         35           0        1.346136    0.328680   -2.262175
      8          6           0        2.234804   -0.516568    0.927215
      9         35           0        1.346316   -2.240564    1.159144
     10          1           0        6.170610   -1.901084   -0.643781
     11          1           0        4.814030   -1.285960    1.125656
     12          1           0        4.000159   -2.513467    0.109218
     13          1           0        3.075420    1.672775   -0.484141
     14          1           0        4.629846    0.984659   -1.061080
     15          1           0        2.256611   -1.854476   -1.516167
     16          1           0        3.525577   -0.869711   -2.308365
     17          1           0        1.422486    0.202928    0.745229
     18          1           0        2.689875   -0.290674    1.900926
     19          8           0       -0.413137    1.267957    1.203156
     20          6           0       -1.662821    0.696375    1.483747
     21          6           0       -2.475737    0.342608    0.206689
     22          6           0       -2.375121    1.480059   -0.822504
     23         35           0       -2.831304    3.248896   -0.124559
     24          6           0       -1.820321   -0.905669   -0.400756
     25         35           0       -2.570612   -1.491052   -2.102401
     26          6           0       -3.952360    0.120182    0.548446
     27         35           0       -4.268553   -1.256215    1.889520
     28          1           0       -0.534421    2.205855    0.992591
     29          1           0       -2.270823    1.363834    2.122805
     30          1           0       -1.469721   -0.221680    2.059290
     31          1           0       -3.042412    1.312970   -1.678011
     32          1           0       -1.342983    1.565560   -1.188859
     33          1           0       -1.924888   -1.761181    0.280506
     34          1           0       -0.753613   -0.723504   -0.589243
     35          1           0       -4.513663   -0.196173   -0.342512
     36          1           0       -4.400588    1.040544    0.949155
 ---------------------------------------------------------------------

 SCF Done:  E(RwB97XD) =  -15985.1828953     a.u. after    1 cycles

 The electronic state is 1-A.
 Alpha  occ. eigenvalues -- -483.06965-483.06260-483.05847-483.05659-483.05614
 Alpha  occ. eigenvalues -- -483.05313 -62.65172 -62.64439 -62.64036 -62.63871
 Alpha  occ. eigenvalues --  -62.63827 -62.63525 -56.45934 -56.45588 -56.45582
 Alpha  occ. eigenvalues --  -56.45207 -56.44857 -56.44852 -56.44799 -56.44643
 Alpha  occ. eigenvalues --  -56.44596 -56.44456 -56.44448 -56.44290 -56.44283
 Alpha  occ. eigenvalues --  -56.44274 -56.44241 -56.44230 -56.43940 -56.43930
 Alpha  occ. eigenvalues --  -19.27486 -19.27290 -10.36513 -10.35915 -10.35879
 Alpha  occ. eigenvalues --  -10.35796 -10.35781 -10.35602 -10.35292 -10.35170
 Alpha  occ. eigenvalues --  -10.35139 -10.35014  -8.82113  -8.81362  -8.80964
 Alpha  occ. eigenvalues --   -8.80816  -8.80771  -8.80468  -6.64624  -6.63882
 Alpha  occ. eigenvalues --   -6.63473  -6.63368  -6.63363  -6.63341  -6.63309
 Alpha  occ. eigenvalues --   -6.62994  -6.62608  -6.62591  -6.62223  -6.62192
 Alpha  occ. eigenvalues --   -6.62056  -6.62022  -6.62019  -6.61979  -6.61723
 Alpha  occ. eigenvalues --   -6.61682  -2.74993  -2.74642  -2.74621  -2.74250
 Alpha  occ. eigenvalues --   -2.73892  -2.73878  -2.73843  -2.73726  -2.73674
 Alpha  occ. eigenvalues --   -2.73620  -2.73620  -2.73494  -2.73470  -2.73363
 Alpha  occ. eigenvalues --   -2.73362  -2.73335  -2.73317  -2.73285  -2.73009
 Alpha  occ. eigenvalues --   -2.72976  -2.72863  -2.72863  -2.72474  -2.72474
 Alpha  occ. eigenvalues --   -2.72294  -2.72294  -2.72257  -2.72256  -2.71963
 Alpha  occ. eigenvalues --   -2.71963  -1.13855  -1.13767  -0.97518  -0.97431
 Alpha  occ. eigenvalues --   -0.91392  -0.90777  -0.90462  -0.90213  -0.86093
 Alpha  occ. eigenvalues --   -0.85909  -0.78803  -0.78180  -0.77042  -0.76852
 Alpha  occ. eigenvalues --   -0.75509  -0.75462  -0.66154  -0.64498  -0.63391
 Alpha  occ. eigenvalues --   -0.61914  -0.59730  -0.59386  -0.57126  -0.56930
 Alpha  occ. eigenvalues --   -0.55803  -0.55477  -0.54607  -0.53974  -0.50999
 Alpha  occ. eigenvalues --   -0.50848  -0.49954  -0.49382  -0.48753  -0.48177
 Alpha  occ. eigenvalues --   -0.46936  -0.46205  -0.45690  -0.45638  -0.45089
 Alpha  occ. eigenvalues --   -0.44583  -0.43278  -0.42632  -0.39332  -0.38533
 Alpha  occ. eigenvalues --   -0.38124  -0.37955  -0.37548  -0.37031  -0.36950
 Alpha  occ. eigenvalues --   -0.36416  -0.36206  -0.36004  -0.35875  -0.35719
 Alpha  occ. eigenvalues --   -0.35609  -0.35332
 Alpha virt. eigenvalues --    0.05791   0.06748   0.07156   0.07511   0.07546
 Alpha virt. eigenvalues --    0.07923   0.12422   0.12645   0.14832   0.15324
 Alpha virt. eigenvalues --    0.16442   0.16811   0.17175   0.17546   0.17805

 Mulliken charges:
               1
     1  O   -0.485126
     2  C    0.063501
     3  C   -0.274147
     4  C   -0.190191
     5  Br  -0.121718
     6  C   -0.194881
     7  Br  -0.115643
     8  C   -0.225667
     9  Br  -0.128685
    10  H    0.330508
    11  H    0.117699
    12  H    0.114933
    13  H    0.175000
    14  H    0.183121
    15  H    0.175576
    16  H    0.185331
    17  H    0.209245
    18  H    0.174347
    19  O   -0.480719
    20  C    0.066883
    21  C   -0.251702
    22  C   -0.229432
    23  Br  -0.124844
    24  C   -0.217566
    25  Br  -0.119085
    26  C   -0.193043
    27  Br  -0.112031
    28  H    0.336460
    29  H    0.122883
    30  H    0.133968
    31  H    0.181711
    32  H    0.177202
    33  H    0.178124
    34  H    0.190718
    35  H    0.173213
    36  H    0.174054
 Sum of Mulliken charges =  -0.00000

 Dipole moment (field-independent basis, Debye):
    X=              2.2335    Y=             -0.1063    Z=             -0.0561  Tot=              2.2368
  Exact polarizability: 216.516   5.376 205.885   5.216   0.548 190.048
 Approx polarizability: 225.382   3.950 245.095   8.173  -1.089 232.932
   1 Symmetry operations used in ECPInt.
 ECPInt:  NShTT=   16290 NPrTT=   79056 LenC2=   13829 LenP2D=   41650.
 LDataN:  DoStor=T MaxTD1= 6 Len=  172
 Calling FoFJK, ICntrl=    100127 FMM=F ISym2X=0 I1Cent= 0 IOpClX= 0 NMat=1 NMatS=1 NMatT=0.
 Full mass-weighted force constant matrix:
 Low frequencies ---   -1.6335    0.0014    0.0093    0.0110    1.7305    4.2034
 Low frequencies ---    7.5726   10.7752   19.1843
 Diagonal vibrational polarizability:

                      1                      2                      3
                      A                      A                      A
 Frequencies --      7.4976                10.7484                19.1730
 Red. masses --     25.0660                24.4025                19.5378
 Frc consts  --      0.0008                 0.0017                 0.0042
 IR Inten    --      0.1662                 0.0626                 0.1144

                      4                      5                      6
                      A                      A                      A
 Frequencies --     23.1885                38.8802                41.4994
 Red. masses --     17.5288                18.6624                24.5219
 Frc consts  --      0.0056                 0.0166                 0.0249
 IR Inten    --      0.0849                 0.4596                 0.0430

                      7                      8                      9
                      A                      A                      A
 Frequencies --     46.5740                54.3235                68.2407
 Red. masses --     20.1445                24.0789                 7.5654
 Frc consts  --      0.0257                 0.0419                 0.0208
 IR Inten    --      0.2766                 0.6705                 1.1425

                     10                     11                     12
                      A                      A                      A
 Frequencies --     83.4928                86.4976                96.8644
 Red. masses --     13.0223                18.1159                 7.7351
 Frc consts  --      0.0535                 0.0799                 0.0428
 IR Inten    --      0.7165                 0.8667                 1.8490

                     13                     14                     15
                      A                      A                      A
 Frequencies --    113.2180               118.9782               129.0703
 Red. masses --      5.5061                 7.5614                 6.4234
 Frc consts  --      0.0416                 0.0631                 0.0630
 IR Inten    --      2.0537                 0.2968                 1.9833

                     16                     17                     18
                      A                      A                      A
 Frequencies --    144.9237               177.5772               180.5014
 Red. masses --      7.6816                 6.5459                 6.1313
 Frc consts  --      0.0951                 0.1216                 0.1177
 IR Inten    --      0.5796                 2.8003                 5.0608

                     19                     20                     21
                      A                      A                      A
 Frequencies --    199.4639               206.4765               233.0387
 Red. masses --      3.3312                 3.4366                 1.3401
 Frc consts  --      0.0781                 0.0863                 0.0429
 IR Inten    --      7.9512                 4.6716                96.3527

                     22                     23                     24
                      A                      A                      A
 Frequencies --    257.4842               267.3706               299.3521
 Red. masses --      2.3073                 3.3682                 2.3833
 Frc consts  --      0.0901                 0.1419                 0.1258
 IR Inten    --     10.6881                 5.6149                 2.2607

                     25                     26                     27
                      A                      A                      A
 Frequencies --    299.7730               325.5956               333.8602
 Red. masses --      2.3194                 2.5930                 2.5719
 Frc consts  --      0.1228                 0.1620                 0.1689
 IR Inten    --      3.7000                 5.8023                 7.6280

                     28                     29                     30
                      A                      A                      A
 Frequencies --    385.7672               386.5362               422.7835
 Red. masses --      3.6142                 4.0231                 2.7782
 Frc consts  --      0.3169                 0.3542                 0.2926
 IR Inten    --      8.6435                 4.1731                 7.4238

                     31                     32                     33
                      A                      A                      A
 Frequencies --    436.0176               486.4286               564.8017
 Red. masses --      3.2962                 1.1162                 3.5095
 Frc consts  --      0.3692                 0.1556                 0.6596
 IR Inten    --      5.2652               107.2941                28.0823

                     34                     35                     36
                      A                      A                      A
 Frequencies --    578.2824               653.0651               653.3044
 Red. masses --      3.6393                 4.5727                 4.5373
 Frc consts  --      0.7171                 1.1491                 1.1410
 IR Inten    --     11.1017                 6.7439                 3.1178

                     37                     38                     39
                      A                      A                      A
 Frequencies --    706.0293               706.6328               724.7785
 Red. masses --      4.1000                 4.1201                 4.6995
 Frc consts  --      1.2041                 1.2121                 1.4545
 IR Inten    --      2.6544                41.8888                31.1328

                     40                     41                     42
                      A                      A                      A
 Frequencies --    725.7865               798.3228               799.7491
 Red. masses --      4.4656                 3.3542                 3.6318
 Frc consts  --      1.3860                 1.2595                 1.3686
 IR Inten    --     18.9429                 0.4040                 5.7297

                     43                     44                     45
                      A                      A                      A
 Frequencies --    852.7612               853.2301               864.6028
 Red. masses --      1.6247                 1.6250                 1.7026
 Frc consts  --      0.6961                 0.6970                 0.7499
 IR Inten    --      3.9651                 6.1835                30.9583

                     46                     47                     48
                      A                      A                      A
 Frequencies --    870.2115               890.8317               891.7831
 Red. masses --      1.7097                 1.7608                 1.8048
 Frc consts  --      0.7628                 0.8233                 0.8456
 IR Inten    --     23.3526                12.2601                14.8361

                     49                     50                     51
                      A                      A                      A
 Frequencies --    953.7043               977.6853              1067.2375
 Red. masses --      1.4943                 1.6761                 1.6509
 Frc consts  --      0.8008                 0.9439                 1.1079
 IR Inten    --     10.5971                 3.4040                 1.6623

                     52                     53                     54
                      A                      A                      A
 Frequencies --   1085.0626              1111.2931              1116.4194
 Red. masses --      1.6773                 1.7190                 1.6758
 Frc consts  --      1.1635                 1.2508                 1.2307
 IR Inten    --      2.3976                16.5730                 8.2384

                     55                     56                     57
                      A                      A                      A
 Frequencies --   1138.6438              1153.0587              1155.0272
 Red. masses --      2.2593                 4.2328                 2.2984
 Frc consts  --      1.7258                 3.3158                 1.8066
 IR Inten    --     82.8831                66.6607                39.9299

                     58                     59                     60
                      A                      A                      A
 Frequencies --   1172.3149              1207.7418              1214.4932
 Red. masses --      1.5353                 1.1643                 1.1804
 Frc consts  --      1.2432                 1.0006                 1.0258
 IR Inten    --      1.7570                32.9355                 5.5800

                     61                     62                     63
                      A                      A                      A
 Frequencies --   1227.8025              1230.7029              1261.2237
 Red. masses --      1.2629                 1.2600                 1.3142
 Frc consts  --      1.1217                 1.1244                 1.2317
 IR Inten    --      2.4702                15.9102                35.1461

                     64                     65                     66
                      A                      A                      A
 Frequencies --   1264.3400              1286.5020              1289.6134
 Red. masses --      1.1627                 1.1878                 1.2529
 Frc consts  --      1.0951                 1.1583                 1.2277
 IR Inten    --     14.9469                32.4945                22.3469

                     67                     68                     69
                      A                      A                      A
 Frequencies --   1306.4792              1326.2547              1330.1071
 Red. masses --      1.2200                 1.4752                 1.5282
 Frc consts  --      1.2269                 1.5288                 1.5929
 IR Inten    --     15.4845                38.0691                 7.3658

                     70                     71                     72
                      A                      A                      A
 Frequencies --   1332.4914              1340.0562              1348.8142
 Red. masses --      1.5364                 1.6349                 1.5073
 Frc consts  --      1.6073                 1.7297                 1.6156
 IR Inten    --     18.9006                26.0336                20.1764

                     73                     74                     75
                      A                      A                      A
 Frequencies --   1354.6658              1419.8174              1437.5343
 Red. masses --      1.5666                 1.2248                 1.2621
 Frc consts  --      1.6938                 1.4547                 1.5367
 IR Inten    --     26.5886                12.5263                23.9254

                     76                     77                     78
                      A                      A                      A
 Frequencies --   1456.1369              1464.0591              1471.5064
 Red. masses --      1.1646                 1.0987                 1.1011
 Frc consts  --      1.4549                 1.3876                 1.4047
 IR Inten    --      6.6937                12.3247                18.8994

                     79                     80                     81
                      A                      A                      A
 Frequencies --   1471.8381              1473.1686              1479.0484
 Red. masses --      1.2996                 1.1098                 1.0990
 Frc consts  --      1.6588                 1.4191                 1.4165
 IR Inten    --      4.5009                 5.8423                18.2138

                     82                     83                     84
                      A                      A                      A
 Frequencies --   1487.1479              1505.2218              1525.6542
 Red. masses --      1.1498                 1.0798                 1.0873
 Frc consts  --      1.4983                 1.4414                 1.4911
 IR Inten    --     10.5005                10.7357                11.5234

                     85                     86                     87
                      A                      A                      A
 Frequencies --   3018.8186              3048.0249              3070.9201
 Red. masses --      1.0583                 1.0685                 1.1095
 Frc consts  --      5.6825                 5.8486                 6.1649
 IR Inten    --     24.8057                27.1837                23.1011

                     88                     89                     90
                      A                      A                      A
 Frequencies --   3107.9100              3113.4327              3121.7262
 Red. masses --      1.0599                 1.0613                 1.0606
 Frc consts  --      6.0318                 6.0613                 6.0897
 IR Inten    --      3.1006                34.4075                 1.2060

                     91                     92                     93
                      A                      A                      A
 Frequencies --   3122.5074              3123.9243              3127.9466
 Red. masses --      1.0602                 1.0600                 1.0591
 Frc consts  --      6.0905                 6.0946                 6.1050
 IR Inten    --      3.1974                 0.3466                 2.5035

                     94                     95                     96
                      A                      A                      A
 Frequencies --   3143.1899              3182.2252              3190.5398
 Red. masses --      1.1015                 1.1111                 1.1108
 Frc consts  --      6.4118                 6.6295                 6.6623
 IR Inten    --      8.2947                 0.0125                23.2065

                     97                     98                     99
                      A                      A                      A
 Frequencies --   3198.7401              3200.1869              3201.7550
 Red. masses --      1.1112                 1.1105                 1.1102
 Frc consts  --      6.6990                 6.7007                 6.7055
 IR Inten    --      2.1296                 5.6224                 1.1207

                    100                    101                    102
                      A                      A                      A
 Frequencies --   3206.0338              3735.4822              3800.4627
 Red. masses --      1.1113                 1.0664                 1.0667
 Frc consts  --      6.7298                 8.7669                 9.0778
 IR Inten    --      0.6776                56.5720                75.2752

 Optimization completed.
    -- Stationary point found.
 Normal termination of Gaussian 16 at Mon Apr  1 19:24:24 2024.
