 Gaussian 16, Revision B.01,
 Gaussian 16:  ES64L-G16RevB.01 20-Dec-2017

 ----------------------------------------------------------------------
 #T wB97XD/def2svpp opt=tight freq int(grid=ultrafine) scf=(verytight,q
 c)
 ----------------------------------------------------------------------
 -------
 comment
 -------
 Symbolic Z-matrix:
 Charge =  1 Multiplicity = 2

 SCF Done:  E(UwB97XD) =  -596.848273446     a.u. after   20 cycles
 SCF Done:  E(UwB97XD) =  -596.859700663     a.u. after   17 cycles
 SCF Done:  E(UwB97XD) =  -596.862587615     a.u. after   17 cycles
 SCF Done:  E(UwB97XD) =  -596.865059160     a.u. after   11 cycles
 SCF Done:  E(UwB97XD) =  -596.867095212     a.u. after   11 cycles
 SCF Done:  E(UwB97XD) =  -596.868247174     a.u. after    9 cycles
 SCF Done:  E(UwB97XD) =  -596.868763952     a.u. after    7 cycles
 SCF Done:  E(UwB97XD) =  -596.869172255     a.u. after    7 cycles
 SCF Done:  E(UwB97XD) =  -596.869662549     a.u. after   23 cycles
 SCF Done:  E(UwB97XD) =  -596.870476091     a.u. after    5 cycles
 SCF Done:  E(UwB97XD) =  -596.871978673     a.u. after    4 cycles
 SCF Done:  E(UwB97XD) =  -596.871989311     a.u. after    4 cycles
 SCF Done:  E(UwB97XD) =  -596.871991081     a.u. after    3 cycles
 SCF Done:  E(UwB97XD) =  -596.871991447     a.u. after    2 cycles
 SCF Done:  E(UwB97XD) =  -596.871991573     a.u. after    2 cycles
 SCF Done:  E(UwB97XD) =  -596.871991600     a.u. after    2 cycles
 SCF Done:  E(UwB97XD) =  -596.871991615     a.u. after    2 cycles
 SCF Done:  E(UwB97XD) =  -596.871991613     a.u. after    2 cycles
 SCF Done:  E(UwB97XD) =  -596.871991615     a.u. after    2 cycles
 Optimization completed.
    -- Stationary point found.
 Normal termination of Gaussian 16 at Mon Jul 10 20:00:52 2023.

 ---------------------------------------------------------------------
 #T Geom=AllCheck Guess=TCheck SCRF=Check GenChk UwB97XD/def2SVPP Freq
 ---------------------------------------------------------------------
 Structure from the checkpoint file:  "24.chk"
 -------
 comment
 -------
 Charge =  1 Multiplicity = 2

                         Standard orientation:
 ---------------------------------------------------------------------
 Center     Atomic      Atomic             Coordinates (Angstroms)
 Number     Number       Type             X           Y           Z
 ---------------------------------------------------------------------
      1          8           0       -0.099217    2.410606    0.084079
      2          6           0        0.169334    1.380322   -0.820269
      3          6           0       -0.032423    0.067471   -0.056114
      4          6           0        0.410330   -1.179712   -0.888398
      5          8           0        1.793225   -1.284192   -0.978961
      6          6           0        0.861468    0.030110    1.208434
      7          8           0        2.193684    0.056790    0.817712
      8          6           0       -1.511633   -0.095566    0.332692
      9          8           0       -2.210114   -0.307092   -0.819565
     10          9           0       -1.620613   -1.178405    1.175216
     11          1           0       -0.057231    3.273494   -0.351533
     12          1           0        1.206816    1.442701   -1.209194
     13          1           0       -0.523803    1.385766   -1.682638
     14          1           0       -0.040014   -1.068207   -1.895791
     15          1           0        0.045245   -2.100422   -0.415356
     16          1           0        2.178597   -0.612516   -1.572346
     17          1           0        0.625618   -0.824047    1.859011
     18          1           0        0.650817    0.998941    1.717034
     19          1           0        2.727343   -0.635175    1.252651
     20          1           0       -1.864616    0.783206    0.900029
     21          1           0       -3.166332   -0.262740   -0.663009
 ---------------------------------------------------------------------

 SCF Done:  E(UwB97XD) =  -596.871991615     a.u. after    1 cycles

 The electronic state is 2-A.
 Alpha  occ. eigenvalues --  -24.95361 -19.53226 -19.52489 -19.42961 -19.41614
 Alpha  occ. eigenvalues --  -10.58201 -10.54567 -10.54390 -10.51732 -10.51302
 Alpha  occ. eigenvalues --   -1.44608  -1.39017  -1.36167  -1.29771  -1.28208
 Alpha  occ. eigenvalues --   -1.10385  -0.98474  -0.96886  -0.93693  -0.85986
 Alpha  occ. eigenvalues --   -0.84976  -0.82890  -0.80609  -0.79421  -0.77016
 Alpha  occ. eigenvalues --   -0.75668  -0.75259  -0.72916  -0.70832  -0.69611
 Alpha  occ. eigenvalues --   -0.68621  -0.67165  -0.64634  -0.63704  -0.62714
 Alpha  occ. eigenvalues --   -0.61141  -0.58601  -0.57789  -0.56759  -0.54928
 Alpha  occ. eigenvalues --   -0.51991
 Alpha virt. eigenvalues --   -0.06170  -0.03914  -0.00876  -0.00015   0.02143
 Alpha virt. eigenvalues --    0.03925   0.04046   0.05076   0.05931   0.07204
 Alpha virt. eigenvalues --    0.08423   0.09327   0.10085   0.11610   0.12956

  Beta  occ. eigenvalues --  -24.95360 -19.52185 -19.51529 -19.42951 -19.41592
  Beta  occ. eigenvalues --  -10.58217 -10.54524 -10.54358 -10.51532 -10.51316
  Beta  occ. eigenvalues --   -1.44603  -1.36796  -1.33820  -1.29735  -1.28143
  Beta  occ. eigenvalues --   -1.09647  -0.97494  -0.96461  -0.93610  -0.85282
  Beta  occ. eigenvalues --   -0.84245  -0.81570  -0.79814  -0.79034  -0.76908
  Beta  occ. eigenvalues --   -0.75202  -0.74256  -0.72362  -0.70093  -0.68065
  Beta  occ. eigenvalues --   -0.65915  -0.64814  -0.63635  -0.62352  -0.60963
  Beta  occ. eigenvalues --   -0.60375  -0.57488  -0.56985  -0.55352  -0.51869
  Beta virt. eigenvalues --   -0.31402  -0.05818  -0.03598  -0.00828   0.00078
  Beta virt. eigenvalues --    0.02308   0.04229   0.04371   0.05229   0.06217
  Beta virt. eigenvalues --    0.07344   0.08594   0.09605   0.10172   0.11977

 Mulliken charges and spin densities:
               1          2
     1  O   -0.480734   0.008007
     2  C    0.062700  -0.005447
     3  C   -0.436986   0.123355
     4  C    0.009989   0.007790
     5  O   -0.312695   0.354928
     6  C    0.015193   0.016803
     7  O   -0.304999   0.388189
     8  C    0.351143  -0.006538
     9  O   -0.430661   0.003184
    10  F   -0.239978   0.000221
    11  H    0.358207  -0.000456
    12  H    0.112474  -0.000455
    13  H    0.158439   0.004677
    14  H    0.217592   0.056447
    15  H    0.194736  -0.000703
    16  H    0.385076  -0.011452
    17  H    0.195200  -0.001925
    18  H    0.233319   0.071025
    19  H    0.396394  -0.013106
    20  H    0.147430   0.005788
    21  H    0.368162  -0.000332
 Sum of Mulliken charges =   1.00000   1.00000

 Dipole moment (field-independent basis, Debye):
    X=              2.9823    Y=              0.9011    Z=             -1.2027  Tot=              3.3396
  Exact polarizability:  75.710  -1.901  71.925   6.028  13.173  81.342
 Approx polarizability:  78.683  -1.681  75.742   3.367  12.093  84.807
                          Isotropic Fermi Contact Couplings
        Atom                 a.u.       MegaHertz       Gauss      10(-4) cm-1
     1  O(17)              0.00109      -0.66338      -0.23671      -0.22128
     2  C(13)             -0.00633      -7.11548      -2.53898      -2.37347
     3  C(13)              0.00753       8.45969       3.01863       2.82185
     4  C(13)             -0.01751     -19.68451      -7.02392      -6.56605
     5  O(17)              0.17933    -108.70814     -38.78977     -36.26113
     6  C(13)             -0.02020     -22.70833      -8.10290      -7.57468

                      1                      2                      3
                      A                      A                      A
 Frequencies --     73.4927               110.7456               137.1907
 Red. masses --      6.1658                 5.7176                 3.6237
 Frc consts  --      0.0196                 0.0413                 0.0402
 IR Inten    --      2.2619                 2.0594                 7.4856

                      4                      5                      6
                      A                      A                      A
 Frequencies --    148.2920               197.2954               209.7822
 Red. masses --      4.0028                 3.3658                 5.2810
 Frc consts  --      0.0519                 0.0772                 0.1369
 IR Inten    --      4.8802                 6.8540                12.6533

                      7                      8                      9
                      A                      A                      A
 Frequencies --    250.7721               287.5059               318.9912
 Red. masses --      3.3335                 2.7001                 1.4195
 Frc consts  --      0.1235                 0.1315                 0.0851
 IR Inten    --     19.8520                38.8853                96.4368

                     10                     11                     12
                      A                      A                      A
 Frequencies --    346.0707               363.1060               393.6941
 Red. masses --      2.2042                 2.1443                 1.8918
 Frc consts  --      0.1555                 0.1666                 0.1728
 IR Inten    --      6.2491                36.0163                53.8698

                     13                     14                     15
                      A                      A                      A
 Frequencies --    416.9451               422.0098               496.3272
 Red. masses --      1.4969                 1.8729                 3.6646
 Frc consts  --      0.1533                 0.1965                 0.5319
 IR Inten    --     66.0599                72.5390                17.4493

                     16                     17                     18
                      A                      A                      A
 Frequencies --    534.9090               566.9792               602.7743
 Red. masses --      1.1808                 4.5745                 4.2835
 Frc consts  --      0.1991                 0.8664                 0.9170
 IR Inten    --     27.4574                42.0643                19.7557

                     19                     20                     21
                      A                      A                      A
 Frequencies --    692.9534               762.5877               866.4291
 Red. masses --      4.6322                 3.3140                 1.7087
 Frc consts  --      1.3105                 1.1355                 0.7558
 IR Inten    --     49.4005                 4.0947                94.7558

                     22                     23                     24
                      A                      A                      A
 Frequencies --    906.0773               933.3430              1012.6462
 Red. masses --      1.7627                 1.7878                 3.9070
 Frc consts  --      0.8526                 0.9176                 2.3606
 IR Inten    --     50.5694                 2.1126                 5.2934

                     25                     26                     27
                      A                      A                      A
 Frequencies --   1069.4463              1086.6722              1115.6300
 Red. masses --      3.0834                 2.9245                 2.7018
 Frc consts  --      2.0778                 2.0347                 1.9812
 IR Inten    --     32.1699                79.8009                72.7355

                     28                     29                     30
                      A                      A                      A
 Frequencies --   1131.8095              1160.8291              1174.0049
 Red. masses --      3.0168                 2.1109                 1.6720
 Frc consts  --      2.2769                 1.6759                 1.3578
 IR Inten    --     28.1340                77.0176                 7.2062

                     31                     32                     33
                      A                      A                      A
 Frequencies --   1184.6994              1223.4341              1242.4281
 Red. masses --      1.8036                 1.5578                 1.6079
 Frc consts  --      1.4914                 1.3738                 1.4623
 IR Inten    --     25.0805                80.9873                32.3924

                     34                     35                     36
                      A                      A                      A
 Frequencies --   1247.9406              1256.6856              1293.0356
 Red. masses --      1.4793                 1.3233                 1.4214
 Frc consts  --      1.3573                 1.2313                 1.4002
 IR Inten    --     31.4832               196.9090                 9.1815

                     37                     38                     39
                      A                      A                      A
 Frequencies --   1310.7408              1323.4128              1357.4031
 Red. masses --      1.3364                 1.3061                 1.2488
 Frc consts  --      1.3528                 1.3478                 1.3557
 IR Inten    --    177.2808                 8.9960                52.5911

                     40                     41                     42
                      A                      A                      A
 Frequencies --   1394.8386              1408.6018              1462.4381
 Red. masses --      1.1678                 1.2488                 1.1805
 Frc consts  --      1.3387                 1.4599                 1.4876
 IR Inten    --      7.9758                26.5707                20.8971

                     43                     44                     45
                      A                      A                      A
 Frequencies --   1473.4438              1480.8855              1486.9250
 Red. masses --      1.4970                 1.0970                 1.5692
 Frc consts  --      1.9149                 1.4174                 2.0442
 IR Inten    --      1.5856                 3.4477                16.4997

                     46                     47                     48
                      A                      A                      A
 Frequencies --   1528.1285              2956.2709              3002.2085
 Red. masses --      1.0930                 1.0654                 1.0642
 Frc consts  --      1.5038                 5.4862                 5.6514
 IR Inten    --      8.3832               173.9874                40.2810

                     49                     50                     51
                      A                      A                      A
 Frequencies --   3022.1669              3073.6515              3100.3325
 Red. masses --      1.0666                 1.1029                 1.0887
 Frc consts  --      5.7398                 6.1392                 6.1659
 IR Inten    --     41.1376                 6.1848                10.9201

                     52                     53                     54
                      A                      A                      A
 Frequencies --   3163.5385              3187.6531              3660.4563
 Red. masses --      1.0997                 1.1013                 1.0676
 Frc consts  --      6.4847                 6.5931                 8.4282
 IR Inten    --     15.0192                 7.9215               412.8959

                     55                     56                     57
                      A                      A                      A
 Frequencies --   3678.2417              3742.9026              3774.0146
 Red. masses --      1.0681                 1.0667                 1.0671
 Frc consts  --      8.5139                 8.8042                 8.9552
 IR Inten    --    211.4557               154.4484               138.3117

 Optimization completed.
    -- Stationary point found.
 Normal termination of Gaussian 16 at Mon Jul 10 20:05:00 2023.
