 Gaussian 16, Revision B.01,
 Gaussian 16:  ES64L-G16RevB.01 20-Dec-2017

 ----------------------------------------------------------------------
 #T wB97XD/def2svpp opt=tight freq int(grid=ultrafine) scf=(verytight,q
 c) Volume=tight
 ----------------------------------------------------------------------
 -----
 Dimer
 -----
 Symbolic Z-matrix:
 Charge =  0 Multiplicity = 1

 SCF Done:  E(RwB97XD) =  -542.953013563     a.u. after    8 cycles
 SCF Done:  E(RwB97XD) =  -542.957051747     a.u. after    6 cycles
 SCF Done:  E(RwB97XD) =  -542.957271554     a.u. after    9 cycles
 SCF Done:  E(RwB97XD) =  -542.957396367     a.u. after    9 cycles
 SCF Done:  E(RwB97XD) =  -542.957429488     a.u. after    7 cycles
 SCF Done:  E(RwB97XD) =  -542.957442550     a.u. after    4 cycles
 SCF Done:  E(RwB97XD) =  -542.957446740     a.u. after    4 cycles
 SCF Done:  E(RwB97XD) =  -542.957448853     a.u. after    2 cycles
 SCF Done:  E(RwB97XD) =  -542.957450883     a.u. after    3 cycles
 SCF Done:  E(RwB97XD) =  -542.957452147     a.u. after    2 cycles
 SCF Done:  E(RwB97XD) =  -542.957454652     a.u. after    2 cycles
 SCF Done:  E(RwB97XD) =  -542.957454652     a.u. after    2 cycles
 SCF Done:  E(RwB97XD) =  -542.957454652     a.u. after    2 cycles
 SCF Done:  E(RwB97XD) =  -542.957454653     a.u. after    2 cycles
 SCF Done:  E(RwB97XD) =  -542.957454653     a.u. after    2 cycles
 SCF Done:  E(RwB97XD) =  -542.957454652     a.u. after    2 cycles
 SCF Done:  E(RwB97XD) =  -542.957454652     a.u. after    2 cycles
 SCF Done:  E(RwB97XD) =  -542.957454653     a.u. after    2 cycles
 SCF Done:  E(RwB97XD) =  -542.957454652     a.u. after    2 cycles
 Optimization completed.
    -- Stationary point found.
 Normal termination of Gaussian 16 at Fri Feb  3 11:23:02 2023.

 ---------------------------------------------------------------------
 #T Geom=AllCheck Guess=TCheck SCRF=Check GenChk RwB97XD/def2SVPP Freq
 ---------------------------------------------------------------------
 Structure from the checkpoint file:  "22.chk"
 -----
 Dimer
 -----
 Charge =  0 Multiplicity = 1

                         Standard orientation:
 ---------------------------------------------------------------------
 Center     Atomic      Atomic             Coordinates (Angstroms)
 Number     Number       Type             X           Y           Z
 ---------------------------------------------------------------------
      1          6           0        3.964353    0.569087    0.109553
      2          6           0        2.563962   -0.069749    0.052293
      3          6           0        2.620321   -1.378415   -0.754734
      4          6           0        2.010122   -0.314450    1.455159
      5          6           0        1.676793    0.897833   -0.709178
      6          8           0        0.735845    1.498949   -0.261430
      7          1           0        4.671825   -0.125934    0.594869
      8          1           0        3.953944    1.507647    0.691186
      9          1           0        4.353182    0.792309   -0.900707
     10          1           0        3.301027   -2.093184   -0.259781
     11          1           0        3.001934   -1.206099   -1.777895
     12          1           0        1.620932   -1.839914   -0.822860
     13          1           0        1.930205    0.628899    2.021297
     14          1           0        2.674960   -0.998473    2.011574
     15          1           0        1.007059   -0.767790    1.397941
     16          1           0        1.974351    1.045721   -1.782777
     17          6           0       -2.010088    0.314505    1.455137
     18          6           0       -2.563959    0.069751    0.052293
     19          6           0       -3.964362   -0.569054    0.109611
     20          6           0       -2.620311    1.378381   -0.754793
     21          6           0       -1.676826   -0.897881   -0.709155
     22          8           0       -0.735851   -1.498965   -0.261417
     23          1           0       -1.930180   -0.628821    2.021317
     24          1           0       -2.674902    0.998566    2.011534
     25          1           0       -1.007018    0.767823    1.397882
     26          1           0       -4.353218   -0.792311   -0.900632
     27          1           0       -4.671809    0.126000    0.594914
     28          1           0       -3.953960   -1.507591    0.691281
     29          1           0       -1.620920    1.839870   -0.822953
     30          1           0       -3.301005    2.093179   -0.259865
     31          1           0       -3.001939    1.206022   -1.777942
     32          1           0       -1.974440   -1.045843   -1.782729
 ---------------------------------------------------------------------

 SCF Done:  E(RwB97XD) =  -542.957454652     a.u. after    1 cycles

 The electronic state is 1-A.
 Alpha  occ. eigenvalues --  -19.25921 -19.25920 -10.38257 -10.38254 -10.31339
 Alpha  occ. eigenvalues --  -10.31339 -10.29303 -10.29303 -10.28384 -10.28383
 Alpha  occ. eigenvalues --  -10.27283 -10.27283  -1.14377  -1.14183  -0.91753
 Alpha  occ. eigenvalues --   -0.91658  -0.78027  -0.77982  -0.77465  -0.77229
 Alpha  occ. eigenvalues --   -0.72331  -0.72148  -0.62198  -0.62048  -0.56940
 Alpha  occ. eigenvalues --   -0.56722  -0.55055  -0.54787  -0.53663  -0.52835
 Alpha  occ. eigenvalues --   -0.51725  -0.50635  -0.48826  -0.48719  -0.46813
 Alpha  occ. eigenvalues --   -0.46426  -0.45883  -0.45777  -0.44919  -0.44833
 Alpha  occ. eigenvalues --   -0.44575  -0.44425  -0.41509  -0.41406  -0.41405
 Alpha  occ. eigenvalues --   -0.40602  -0.33505  -0.33440
 Alpha virt. eigenvalues --    0.04932   0.06001   0.13369   0.13796   0.16773
 Alpha virt. eigenvalues --    0.17326   0.18477   0.18730   0.19821   0.20180
 Alpha virt. eigenvalues --    0.20457   0.20693   0.21083   0.22909   0.23166

 Mulliken charges:
               1
     1  C   -0.287802
     2  C   -0.280810
     3  C   -0.309344
     4  C   -0.281763
     5  C    0.130025
     6  O   -0.205600
     7  H    0.127483
     8  H    0.129695
     9  H    0.118678
    10  H    0.121760
    11  H    0.112489
    12  H    0.160206
    13  H    0.121500
    14  H    0.109309
    15  H    0.158185
    16  H    0.075991
    17  C   -0.281766
    18  C   -0.280810
    19  C   -0.287803
    20  C   -0.309343
    21  C    0.130023
    22  O   -0.205601
    23  H    0.121498
    24  H    0.109308
    25  H    0.158189
    26  H    0.118678
    27  H    0.127483
    28  H    0.129695
    29  H    0.160206
    30  H    0.121761
    31  H    0.112489
    32  H    0.075990
 Sum of Mulliken charges =   0.00000

 Dipole moment (field-independent basis, Debye):
    X=             -0.0000    Y=             -0.0000    Z=             -0.9682  Tot=              0.9682
  Exact polarizability: 129.738  -7.881 100.971   0.000   0.000 107.214
 Approx polarizability: 124.778 -11.845 112.831   0.000   0.000 115.275
   1 Symmetry operations used in ECPInt.
 ECPInt:  NShTT=    6328 NPrTT=   25416 LenC2=    6150 LenP2D=   17975.
 LDataN:  DoStor=T MaxTD1= 6 Len=  172
 Calling FoFJK, ICntrl=    100127 FMM=F ISym2X=0 I1Cent= 0 IOpClX= 0 NMat=1 NMatS=1 NMatT=0.
 Full mass-weighted force constant matrix:
 Low frequencies ---  -13.4355   -0.0010   -0.0006    0.0003    0.7583    3.6214
 Low frequencies ---   31.4307   43.2661   60.6866
 Diagonal vibrational polarizability:

                      1                      2                      3
                      A                      A                      A
 Frequencies --     31.4180                43.2499                60.6761
 Red. masses --      3.9118                 2.8750                 3.9319
 Frc consts  --      0.0023                 0.0032                 0.0085
 IR Inten    --      1.7186                 0.3262                 3.3157

                      4                      5                      6
                      A                      A                      A
 Frequencies --     65.3552                67.2257                69.3562
 Red. masses --      3.9824                 2.9161                 4.7291
 Frc consts  --      0.0100                 0.0078                 0.0134
 IR Inten    --      0.2557                 1.5489                 0.0522

                      7                      8                      9
                      A                      A                      A
 Frequencies --    103.2904               116.0789               220.9608
 Red. masses --      5.4328                 4.7777                 1.0211
 Frc consts  --      0.0342                 0.0379                 0.0294
 IR Inten    --     18.5619                 0.2823                 0.0902

                     10                     11                     12
                      A                      A                      A
 Frequencies --    223.5412               263.2033               269.5954
 Red. masses --      1.0209                 1.7091                 1.5329
 Frc consts  --      0.0301                 0.0698                 0.0656
 IR Inten    --      0.0032                 1.9131                 4.1518

                     13                     14                     15
                      A                      A                      A
 Frequencies --    283.6339               290.7103               291.3834
 Red. masses --      1.1203                 1.2376                 1.3146
 Frc consts  --      0.0531                 0.0616                 0.0658
 IR Inten    --      0.7269                 1.2079                 0.7817

                     16                     17                     18
                      A                      A                      A
 Frequencies --    301.9469               330.3629               331.5360
 Red. masses --      1.3258                 2.0681                 2.0038
 Frc consts  --      0.0712                 0.1330                 0.1298
 IR Inten    --      2.8077                 0.8146                 0.0102

                     19                     20                     21
                      A                      A                      A
 Frequencies --    357.4932               362.9148               401.5891
 Red. masses --      2.6003                 2.5884                 2.3136
 Frc consts  --      0.1958                 0.2009                 0.2198
 IR Inten    --      0.9362                 4.6331                 0.4659

                     22                     23                     24
                      A                      A                      A
 Frequencies --    403.5162               414.7117               414.9057
 Red. masses --      2.3058                 2.0924                 2.0786
 Frc consts  --      0.2212                 0.2120                 0.2108
 IR Inten    --      1.1368                 4.7147                 0.1362

                     25                     26                     27
                      A                      A                      A
 Frequencies --    611.5947               612.9228               786.3481
 Red. masses --      3.7428                 3.7143                 3.4421
 Frc consts  --      0.8249                 0.8221                 1.2540
 IR Inten    --      2.6851                 2.9951                 4.7976

                     28                     29                     30
                      A                      A                      A
 Frequencies --    787.0679               915.3630               915.5230
 Red. masses --      3.4593                 2.0452                 2.0335
 Frc consts  --      1.2626                 1.0097                 1.0042
 IR Inten    --      8.3077                49.4483                12.9890

                     31                     32                     33
                      A                      A                      A
 Frequencies --    959.4438               959.8609               969.7726
 Red. masses --      2.0657                 2.0403                 1.4700
 Frc consts  --      1.1203                 1.1075                 0.8145
 IR Inten    --      2.4648                 0.2384                 0.5466

                     34                     35                     36
                      A                      A                      A
 Frequencies --    970.2264               974.5259               975.8384
 Red. masses --      1.4800                 1.3157                 1.3100
 Frc consts  --      0.8209                 0.7362                 0.7350
 IR Inten    --      2.8419                 8.7459                 0.6373

                     37                     38                     39
                      A                      A                      A
 Frequencies --    981.6774               982.0279              1069.4986
 Red. masses --      1.2149                 1.2220                 1.4405
 Frc consts  --      0.6898                 0.6943                 0.9708
 IR Inten    --      0.2421                 0.4371                 2.3189

                     40                     41                     42
                      A                      A                      A
 Frequencies --   1070.4089              1082.3321              1083.0976
 Red. masses --      1.4420                 1.5450                 1.5397
 Frc consts  --      0.9735                 1.0664                 1.0642
 IR Inten    --      4.4426                 0.1643                 1.3975

                     43                     44                     45
                      A                      A                      A
 Frequencies --   1259.9829              1260.0231              1262.6208
 Red. masses --      2.6716                 2.6584                 2.4458
 Frc consts  --      2.4989                 2.4868                 2.2973
 IR Inten    --      9.7435                 0.4855                 6.5760

                     46                     47                     48
                      A                      A                      A
 Frequencies --   1263.0836              1323.1515              1323.1613
 Red. masses --      2.4713                 2.8150                 2.8232
 Frc consts  --      2.3229                 2.9036                 2.9122
 IR Inten    --      0.2474                 1.0363                 0.6436

                     49                     50                     51
                      A                      A                      A
 Frequencies --   1402.9008              1402.9932              1411.1921
 Red. masses --      1.2425                 1.2421                 1.3254
 Frc consts  --      1.4408                 1.4405                 1.5551
 IR Inten    --     10.0838                 0.9004                 5.9150

                     52                     53                     54
                      A                      A                      A
 Frequencies --   1411.7165              1419.3631              1422.1705
 Red. masses --      1.3117                 1.2111                 1.2027
 Frc consts  --      1.5402                 1.4376                 1.4332
 IR Inten    --     12.4847                 1.5603                 8.9811

                     55                     56                     57
                      A                      A                      A
 Frequencies --   1442.4322              1445.1904              1471.2701
 Red. masses --      1.2179                 1.2221                 1.0418
 Frc consts  --      1.4929                 1.5039                 1.3287
 IR Inten    --      6.0671                13.3362                 0.1822

                     58                     59                     60
                      A                      A                      A
 Frequencies --   1471.9892              1480.7330              1483.1629
 Red. masses --      1.0419                 1.0434                 1.0467
 Frc consts  --      1.3301                 1.3480                 1.3566
 IR Inten    --      0.5378                 2.5623                 0.0387

                     61                     62                     63
                      A                      A                      A
 Frequencies --   1486.3046              1488.9695              1495.5610
 Red. masses --      1.0477                 1.0484                 1.0522
 Frc consts  --      1.3637                 1.3695                 1.3867
 IR Inten    --      0.8850                 1.5116                 9.5299

                     64                     65                     66
                      A                      A                      A
 Frequencies --   1498.7549              1505.2144              1507.1543
 Red. masses --      1.0553                 1.0731                 1.0655
 Frc consts  --      1.3967                 1.4325                 1.4260
 IR Inten    --      0.5045                 5.4258                 9.6950

                     67                     68                     69
                      A                      A                      A
 Frequencies --   1521.2205              1525.0442              1879.9962
 Red. masses --      1.0772                 1.0737                10.9663
 Frc consts  --      1.4687                 1.4713                22.8363
 IR Inten    --     27.7367                11.8915                20.6408

                     70                     71                     72
                      A                      A                      A
 Frequencies --   1881.8708              2892.8328              2895.2068
 Red. masses --     11.0798                 1.0843                 1.0848
 Frc consts  --     23.1185                 5.3461                 5.3573
 IR Inten    --    485.9499                29.7597               190.4533

                     73                     74                     75
                      A                      A                      A
 Frequencies --   3023.7909              3023.8177              3026.7143
 Red. masses --      1.0367                 1.0367                 1.0377
 Frc consts  --      5.5850                 5.5851                 5.6012
 IR Inten    --      0.5772                33.8417                45.5179

                     76                     77                     78
                      A                      A                      A
 Frequencies --   3027.1721              3039.7161              3040.1490
 Red. masses --      1.0378                 1.0384                 1.0383
 Frc consts  --      5.6031                 5.6528                 5.6541
 IR Inten    --     25.9809                11.8375                28.6144

                     79                     80                     81
                      A                      A                      A
 Frequencies --   3114.3301              3114.3760              3116.8240
 Red. masses --      1.1042                 1.1042                 1.1040
 Frc consts  --      6.3100                 6.3102                 6.3189
 IR Inten    --      4.3724                 4.2819                 2.5605

                     82                     83                     84
                      A                      A                      A
 Frequencies --   3116.9619              3124.8603              3124.8627
 Red. masses --      1.1039                 1.1056                 1.1056
 Frc consts  --      6.3189                 6.3606                 6.3606
 IR Inten    --     61.2153                 1.1617                11.2078

                     85                     86                     87
                      A                      A                      A
 Frequencies --   3129.4947              3129.6360              3143.5108
 Red. masses --      1.1042                 1.1042                 1.1056
 Frc consts  --      6.3717                 6.3723                 6.4371
 IR Inten    --      0.0034                48.1031                 1.7303

                     88                     89                     90
                      A                      A                      A
 Frequencies --   3143.5575              3154.3767              3157.0309
 Red. masses --      1.1056                 1.1049                 1.1045
 Frc consts  --      6.4374                 6.4772                 6.4857
 IR Inten    --      0.1071                 1.9904                 1.2624

                           ! Non-Optimized Parameters !
 Normal termination of Gaussian 16 at Fri Feb  3 11:28:54 2023.
