 Gaussian 16, Revision B.01,
 Gaussian 16:  ES64L-G16RevB.01 20-Dec-2017

 ----------------------------------------------------------------------
 #T wB97XD/def2svpp opt=tight freq int(grid=ultrafine) scf=(verytight,q
 c)
 ----------------------------------------------------------------------
 -----
 dimer
 -----
 Symbolic Z-matrix:
 Charge =  0 Multiplicity = 1

 SCF Done:  E(RwB97XD) =  -996.158944719     a.u. after    7 cycles
 SCF Done:  E(RwB97XD) =  -996.157664448     a.u. after   11 cycles
 SCF Done:  E(RwB97XD) =  -996.160187356     a.u. after    8 cycles
 SCF Done:  E(RwB97XD) =  -996.160294238     a.u. after    9 cycles
 SCF Done:  E(RwB97XD) =  -996.160886570     a.u. after    9 cycles
 SCF Done:  E(RwB97XD) =  -996.161499973     a.u. after    7 cycles
 SCF Done:  E(RwB97XD) =  -996.161627166     a.u. after    9 cycles
 SCF Done:  E(RwB97XD) =  -996.161463020     a.u. after    8 cycles
 SCF Done:  E(RwB97XD) =  -996.161612784     a.u. after    7 cycles
 SCF Done:  E(RwB97XD) =  -996.161780502     a.u. after    7 cycles
 SCF Done:  E(RwB97XD) =  -996.162488095     a.u. after    2 cycles
 SCF Done:  E(RwB97XD) =  -996.162488128     a.u. after    2 cycles
 SCF Done:  E(RwB97XD) =  -996.162488139     a.u. after    2 cycles
 SCF Done:  E(RwB97XD) =  -996.162488141     a.u. after    2 cycles
 SCF Done:  E(RwB97XD) =  -996.162488139     a.u. after    2 cycles
 SCF Done:  E(RwB97XD) =  -996.162488140     a.u. after    2 cycles
 SCF Done:  E(RwB97XD) =  -996.162488139     a.u. after    2 cycles
 SCF Done:  E(RwB97XD) =  -996.162488138     a.u. after    2 cycles
 SCF Done:  E(RwB97XD) =  -996.162488139     a.u. after    2 cycles
 Optimization completed.
    -- Stationary point found.
 Normal termination of Gaussian 16 at Tue Aug  9 21:54:07 2022.

 ---------------------------------------------------------------------
 #T Geom=AllCheck Guess=TCheck SCRF=Check GenChk RwB97XD/def2SVPP Freq
 ---------------------------------------------------------------------
 Structure from the checkpoint file:  "/scratch/user/peterchao1/peterchao1/6113308_1660079070000000022142249/Gau-77951.chk"
 -----
 dimer
 -----
 Charge =  0 Multiplicity = 1

                         Standard orientation:
 ---------------------------------------------------------------------
 Center     Atomic      Atomic             Coordinates (Angstroms)
 Number     Number       Type             X           Y           Z
 ---------------------------------------------------------------------
      1          8           0        3.436187    1.648191    1.023272
      2          6           0        3.880933    0.448200    0.428197
      3          6           0        2.742080   -0.336047   -0.253199
      4          6           0        2.199965    0.479394   -1.450349
      5          8           0        1.967206    1.841745   -1.178785
      6          6           0        3.300148   -1.654026   -0.831896
      7          8           0        3.796098   -2.551112    0.126987
      8          6           0        1.661497   -0.700268    0.781718
      9          8           0        1.135369    0.400862    1.502033
     10          1           0        2.992551    2.140865    0.297336
     11          1           0        4.323472   -0.155346    1.239744
     12          1           0        4.682115    0.653302   -0.313087
     13          1           0        1.281267   -0.002921   -1.837149
     14          1           0        2.952551    0.441344   -2.260220
     15          1           0        1.017335    1.966481   -0.956535
     16          1           0        4.071727   -1.416201   -1.592929
     17          1           0        2.488431   -2.187591   -1.356398
     18          1           0        4.664768   -2.257032    0.428940
     19          1           0        2.085650   -1.437687    1.486159
     20          1           0        0.810212   -1.188068    0.273554
     21          1           0        1.889036    0.998871    1.706458
     22          8           0       -4.919161   -0.391545   -0.060487
     23          6           0       -4.103493    0.754351   -0.165505
     24          6           0       -2.598856    0.450968   -0.017570
     25          6           0       -2.120864   -0.428499   -1.189562
     26          8           0       -2.841252   -1.637331   -1.313787
     27          6           0       -1.846395    1.792298   -0.048902
     28          8           0       -0.454847    1.666418   -0.152503
     29          6           0       -2.338396   -0.256821    1.329276
     30          8           0       -2.920879   -1.540350    1.410873
     31          1           0       -4.611822   -1.003970   -0.756642
     32          1           0       -4.426331    1.442422    0.635638
     33          1           0       -4.280434    1.270286   -1.132328
     34          1           0       -1.038358   -0.629013   -1.076972
     35          1           0       -2.252796    0.116713   -2.140489
     36          1           0       -2.732749   -2.103015   -0.462421
     37          1           0       -2.120208    2.386209    0.847556
     38          1           0       -2.171201    2.370938   -0.930710
     39          1           0       -0.034107    1.215904    0.623036
     40          1           0       -2.704917    0.390716    2.153159
     41          1           0       -1.256460   -0.395900    1.489609
     42          1           0       -3.879213   -1.409624    1.280622
 ---------------------------------------------------------------------

 SCF Done:  E(RwB97XD) =  -996.162488139     a.u. after    1 cycles

 The electronic state is 1-A.
 Alpha  occ. eigenvalues --  -19.27143 -19.27020 -19.26506 -19.26333 -19.25983
 Alpha  occ. eigenvalues --  -19.25919 -19.25893 -19.25767 -10.35888 -10.35691
 Alpha  occ. eigenvalues --  -10.35587 -10.35321 -10.35023 -10.35020 -10.34741
 Alpha  occ. eigenvalues --  -10.34620 -10.32006 -10.31517  -1.15019  -1.14331
 Alpha  occ. eigenvalues --   -1.13408  -1.12702  -1.12161  -1.11241  -1.11139
 Alpha  occ. eigenvalues --   -1.10721  -0.91710  -0.91155  -0.78480  -0.78175
 Alpha  occ. eigenvalues --   -0.78051  -0.77407  -0.77164  -0.76582  -0.68525
 Alpha  occ. eigenvalues --   -0.68226  -0.64515  -0.63660  -0.63199  -0.62548
 Alpha  occ. eigenvalues --   -0.61676  -0.60085  -0.58481  -0.57776  -0.56434
 Alpha  occ. eigenvalues --   -0.55293  -0.54977  -0.54607  -0.54357  -0.53350
 Alpha  occ. eigenvalues --   -0.52546  -0.51911  -0.50978  -0.50242  -0.49598
 Alpha  occ. eigenvalues --   -0.49298  -0.49018  -0.48744  -0.46701  -0.45910
 Alpha  occ. eigenvalues --   -0.44644  -0.44259  -0.43704  -0.42655  -0.42099
 Alpha  occ. eigenvalues --   -0.41501  -0.38960  -0.38671  -0.36447  -0.36323
 Alpha  occ. eigenvalues --   -0.35948  -0.35371  -0.35020  -0.34864
 Alpha virt. eigenvalues --    0.10792   0.11720   0.13249   0.13804   0.14323
 Alpha virt. eigenvalues --    0.15291   0.15702   0.17110   0.17980   0.19156
 Alpha virt. eigenvalues --    0.19689   0.20043   0.20258   0.20659   0.21389

 Mulliken charges:
               1
     1  O   -0.519408
     2  C    0.050155
     3  C   -0.384626
     4  C    0.053658
     5  O   -0.528662
     6  C    0.050937
     7  O   -0.475766
     8  C    0.071450
     9  O   -0.533665
    10  H    0.341772
    11  H    0.099168
    12  H    0.103870
    13  H    0.122700
    14  H    0.102876
    15  H    0.343648
    16  H    0.103830
    17  H    0.115333
    18  H    0.325661
    19  H    0.122899
    20  H    0.117114
    21  H    0.343569
    22  O   -0.514323
    23  C    0.077407
    24  C   -0.416488
    25  C    0.060790
    26  O   -0.518040
    27  C    0.096819
    28  O   -0.558196
    29  C    0.040993
    30  O   -0.514926
    31  H    0.329744
    32  H    0.108044
    33  H    0.100929
    34  H    0.115177
    35  H    0.105264
    36  H    0.329503
    37  H    0.103308
    38  H    0.105639
    39  H    0.361746
    40  H    0.099449
    41  H    0.131383
    42  H    0.329268
 Sum of Mulliken charges =  -0.00000

 Dipole moment (field-independent basis, Debye):
    X=              1.9733    Y=              0.9201    Z=             -0.9570  Tot=              2.3783
  Exact polarizability: 151.679  -3.762 125.208  -0.165   0.061 119.646
 Approx polarizability: 144.486  -0.463 140.828   1.081  -0.097 135.507
   1 Symmetry operations used in ECPInt.
 ECPInt:  NShTT=   12246 NPrTT=   49134 LenC2=   11326 LenP2D=   31566.
 LDataN:  DoStor=T MaxTD1= 6 Len=  172
 Calling FoFJK, ICntrl=    100127 FMM=F ISym2X=0 I1Cent= 0 IOpClX= 0 NMat=1 NMatS=1 NMatT=0.
 Full mass-weighted force constant matrix:
 Low frequencies ---   -2.4493   -0.0010   -0.0007    0.0006    4.1142    4.9511
 Low frequencies ---   22.0414   25.9791   43.8934
 Diagonal vibrational polarizability:

                      1                      2                      3
                      A                      A                      A
 Frequencies --     21.8764                25.9600                43.8660
 Red. masses --      5.6947                 5.4562                 5.6239
 Frc consts  --      0.0016                 0.0022                 0.0064
 IR Inten    --      0.8537                 0.3579                 0.2906

                      4                      5                      6
                      A                      A                      A
 Frequencies --     59.1712                97.8753               105.8939
 Red. masses --      6.0356                 3.9616                 3.9185
 Frc consts  --      0.0125                 0.0224                 0.0259
 IR Inten    --      0.8456                 6.1464                 4.2968

                      7                      8                      9
                      A                      A                      A
 Frequencies --    111.9653               142.4664               154.9818
 Red. masses --      2.7682                 2.6301                 2.8250
 Frc consts  --      0.0204                 0.0315                 0.0400
 IR Inten    --      6.4081                 2.6112                13.2908

                     10                     11                     12
                      A                      A                      A
 Frequencies --    189.2013               203.3164               212.7506
 Red. masses --      4.5673                 3.9881                 4.5046
 Frc consts  --      0.0963                 0.0971                 0.1201
 IR Inten    --      3.2220                 0.7947                 8.2204

                     13                     14                     15
                      A                      A                      A
 Frequencies --    222.9974               231.1431               247.7389
 Red. masses --      5.7803                 6.1097                 3.2573
 Frc consts  --      0.1694                 0.1923                 0.1178
 IR Inten    --     13.4224                 4.9316                11.6095

                     16                     17                     18
                      A                      A                      A
 Frequencies --    272.9578               279.4888               289.1555
 Red. masses --      2.4642                 2.4927                 5.2117
 Frc consts  --      0.1082                 0.1147                 0.2567
 IR Inten    --     13.7060                16.1315                 9.7742

                     19                     20                     21
                      A                      A                      A
 Frequencies --    299.3776               309.8323               324.8643
 Red. masses --      5.9298                 1.8162                 2.4856
 Frc consts  --      0.3131                 0.1027                 0.1546
 IR Inten    --      1.8306                95.9639                34.4006

                     22                     23                     24
                      A                      A                      A
 Frequencies --    335.9203               345.0376               375.7332
 Red. masses --      2.3791                 3.6665                 2.7402
 Frc consts  --      0.1582                 0.2572                 0.2279
 IR Inten    --     21.4591                 4.2093                 1.4746

                     25                     26                     27
                      A                      A                      A
 Frequencies --    381.5436               417.6637               431.3061
 Red. masses --      2.4916                 6.9809                 4.6291
 Frc consts  --      0.2137                 0.7175                 0.5074
 IR Inten    --     11.4790                 3.4453                 4.6578

                     28                     29                     30
                      A                      A                      A
 Frequencies --    447.9618               453.2465               472.7587
 Red. masses --      2.6470                 2.3712                 2.8016
 Frc consts  --      0.3130                 0.2870                 0.3689
 IR Inten    --      1.2993                 2.6180                 2.9901

                     31                     32                     33
                      A                      A                      A
 Frequencies --    480.7049               626.6485               638.1906
 Red. masses --      2.8655                 1.1459                 1.1739
 Frc consts  --      0.3901                 0.2651                 0.2817
 IR Inten    --      3.2209               253.0487               267.5120

                     34                     35                     36
                      A                      A                      A
 Frequencies --    642.5223               659.8512               665.3404
 Red. masses --      1.2701                 4.3274                 2.6201
 Frc consts  --      0.3089                 1.1101                 0.6834
 IR Inten    --    151.7880                20.3125                48.1603

                     37                     38                     39
                      A                      A                      A
 Frequencies --    780.8428               781.9670               814.0131
 Red. masses --      2.4716                 2.8110                 1.1971
 Frc consts  --      0.8879                 1.0127                 0.4674
 IR Inten    --     59.5721                11.7106               139.1163

                     40                     41                     42
                      A                      A                      A
 Frequencies --    862.1801               905.6254               912.1601
 Red. masses --      1.1424                 1.7155                 1.4057
 Frc consts  --      0.5003                 0.8290                 0.6891
 IR Inten    --    217.7067                33.2103                64.5495

                     43                     44                     45
                      A                      A                      A
 Frequencies --    917.8532               932.8941               960.1841
 Red. masses --      1.5353                 1.4267                 1.3525
 Frc consts  --      0.7621                 0.7316                 0.7347
 IR Inten    --     34.0072                33.5823                 4.3922

                     46                     47                     48
                      A                      A                      A
 Frequencies --    963.9523               975.9618               981.8484
 Red. masses --      1.2738                 1.8345                 1.7569
 Frc consts  --      0.6974                 1.0295                 0.9979
 IR Inten    --     18.7064                 8.3110                10.1017

                     49                     50                     51
                      A                      A                      A
 Frequencies --   1002.0304              1016.7165              1088.5636
 Red. masses --      1.4919                 1.5260                 5.8067
 Frc consts  --      0.8825                 0.9294                 4.0541
 IR Inten    --     34.3078                 4.2714               106.0368

                     52                     53                     54
                      A                      A                      A
 Frequencies --   1095.3551              1111.6298              1118.6649
 Red. masses --      5.7678                 4.7980                 5.4940
 Frc consts  --      4.0773                 3.4933                 4.0508
 IR Inten    --     51.8685                16.5922                14.7148

                     55                     56                     57
                      A                      A                      A
 Frequencies --   1122.4881              1126.0477              1162.0456
 Red. masses --      5.9007                 5.9610                 3.0598
 Frc consts  --      4.3804                 4.4533                 2.4344
 IR Inten    --     23.4095                33.7530                39.0711

                     58                     59                     60
                      A                      A                      A
 Frequencies --   1168.7233              1180.2196              1181.4776
 Red. masses --      2.7871                 2.2542                 2.3213
 Frc consts  --      2.2430                 1.8499                 1.9091
 IR Inten    --     78.6830               203.5612                61.0137

                     61                     62                     63
                      A                      A                      A
 Frequencies --   1191.9397              1194.6642              1203.0250
 Red. masses --      2.8448                 1.8006                 1.7202
 Frc consts  --      2.3813                 1.5141                 1.4668
 IR Inten    --    128.6500                26.7823                40.6121

                     64                     65                     66
                      A                      A                      A
 Frequencies --   1210.3198              1251.6532              1253.5014
 Red. masses --      1.8695                 1.1616                 1.1202
 Frc consts  --      1.6135                 1.0722                 1.0371
 IR Inten    --     28.5572                 9.9855                18.0896

                     67                     68                     69
                      A                      A                      A
 Frequencies --   1265.1962              1276.7422              1324.5322
 Red. masses --      1.0626                 1.1100                 1.5500
 Frc consts  --      1.0022                 1.0660                 1.6021
 IR Inten    --     26.1982                14.4725                 9.1551

                     70                     71                     72
                      A                      A                      A
 Frequencies --   1329.8086              1360.9446              1362.9735
 Red. masses --      1.5066                 1.5984                 1.4458
 Frc consts  --      1.5697                 1.7443                 1.5825
 IR Inten    --      2.7728                30.0692                17.2096

                     73                     74                     75
                      A                      A                      A
 Frequencies --   1381.8017              1384.3656              1396.1446
 Red. masses --      1.2854                 1.3676                 1.2859
 Frc consts  --      1.4460                 1.5442                 1.4768
 IR Inten    --      6.8007                10.3724                 8.7658

                     76                     77                     78
                      A                      A                      A
 Frequencies --   1402.3805              1416.4592              1430.5200
 Red. masses --      1.2907                 1.2685                 1.3858
 Frc consts  --      1.4956                 1.4995                 1.6709
 IR Inten    --      0.5876                 2.7653                26.9334

                     79                     80                     81
                      A                      A                      A
 Frequencies --   1434.7549              1453.7510              1458.6160
 Red. masses --      1.2960                 1.4084                 1.2379
 Frc consts  --      1.5718                 1.7537                 1.5518
 IR Inten    --     75.6518                 2.5535                74.4336

                     82                     83                     84
                      A                      A                      A
 Frequencies --   1459.5957              1469.8761              1474.4754
 Red. masses --      1.2412                 1.2291                 1.2333
 Frc consts  --      1.5580                 1.5646                 1.5797
 IR Inten    --     13.4572                19.0540                45.7475

                     85                     86                     87
                      A                      A                      A
 Frequencies --   1482.2680              1495.6745              1498.2566
 Red. masses --      1.1813                 1.0944                 1.1330
 Frc consts  --      1.5293                 1.4425                 1.4985
 IR Inten    --     97.7238                 5.2104                62.5245

                     88                     89                     90
                      A                      A                      A
 Frequencies --   1500.5800              1503.4313              1504.5359
 Red. masses --      1.1212                 1.0962                 1.1156
 Frc consts  --      1.4875                 1.4598                 1.4878
 IR Inten    --      7.4024                52.8247                28.2019

                     91                     92                     93
                      A                      A                      A
 Frequencies --   1505.2280              1511.2329              1516.8149
 Red. masses --      1.0983                 1.1039                 1.0980
 Frc consts  --      1.4661                 1.4855                 1.4884
 IR Inten    --     10.9178                56.5048                19.7886

                     94                     95                     96
                      A                      A                      A
 Frequencies --   1523.6717              1525.4209              1530.0089
 Red. masses --      1.1073                 1.1443                 1.1078
 Frc consts  --      1.5146                 1.5689                 1.5279
 IR Inten    --     11.4905                32.4717                90.4303

                     97                     98                     99
                      A                      A                      A
 Frequencies --   2993.6610              2996.8610              2997.3050
 Red. masses --      1.0688                 1.0703                 1.0681
 Frc consts  --      5.6433                 5.6635                 5.6533
 IR Inten    --     57.5814                42.3214                13.8958

                    100                    101                    102
                      A                      A                      A
 Frequencies --   3003.3425              3005.0235              3019.6587
 Red. masses --      1.0676                 1.0703                 1.0606
 Frc consts  --      5.6738                 5.6945                 5.6977
 IR Inten    --     45.4533               118.6624                58.2724

                    103                    104                    105
                      A                      A                      A
 Frequencies --   3035.1967              3047.2068              3077.3121
 Red. masses --      1.0621                 1.0605                 1.1091
 Frc consts  --      5.7650                 5.8020                 6.1883
 IR Inten    --     67.8101                29.5910                34.1966

                    106                    107                    108
                      A                      A                      A
 Frequencies --   3089.0062              3089.9501              3095.1066
 Red. masses --      1.0998                 1.0998                 1.1017
 Frc consts  --      6.1831                 6.1865                 6.2182
 IR Inten    --     26.5053                29.0902                15.0964

                    109                    110                    111
                      A                      A                      A
 Frequencies --   3096.0017              3099.8615              3104.9710
 Red. masses --      1.1009                 1.1058                 1.1091
 Frc consts  --      6.2174                 6.2606                 6.2998
 IR Inten    --     26.9062                67.2761                29.1563

                    112                    113                    114
                      A                      A                      A
 Frequencies --   3118.0334              3324.1428              3458.0492
 Red. masses --      1.0972                 1.0719                 1.0665
 Frc consts  --      6.2849                 6.9785                 7.5142
 IR Inten    --     19.2031               460.7553               695.5235

                    115                    116                    117
                      A                      A                      A
 Frequencies --   3473.4504              3517.0428              3593.1630
 Red. masses --      1.0674                 1.0644                 1.0662
 Frc consts  --      7.5876                 7.7570                 8.1103
 IR Inten    --   1052.3256               132.8698                81.9337

                    118                    119                    120
                      A                      A                      A
 Frequencies --   3625.5858              3630.8798              3791.2527
 Red. masses --      1.0648                 1.0650                 1.0665
 Frc consts  --      8.2467                 8.2720                 9.0317
 IR Inten    --    173.9336               180.3860                41.1555

 Optimization completed.
    -- Stationary point found.
 Normal termination of Gaussian 16 at Tue Aug  9 22:12:02 2022.
