 Gaussian 16, Revision B.01,
 Gaussian 16:  ES64L-G16RevB.01 20-Dec-2017

 ----------------------------------------------------------------------
 #T wB97XD/def2svpp opt=(calcall,tight) int(grid=ultrafine) scf=(veryti
 ght,qc) Volume=tight
 ----------------------------------------------------------------------
 -------
 Monomer
 -------
 Symbolic Z-matrix:
 Charge =  0 Multiplicity = 1

 SCF Done:  E(RwB97XD) =  -782.738004809     a.u. after    8 cycles
 SCF Done:  E(RwB97XD) =  -782.738308397     a.u. after   18 cycles
 SCF Done:  E(RwB97XD) =  -782.738352362     a.u. after    9 cycles
 SCF Done:  E(RwB97XD) =  -782.738354712     a.u. after    6 cycles
 SCF Done:  E(RwB97XD) =  -782.738354773     a.u. after    4 cycles
 SCF Done:  E(RwB97XD) =  -782.738354701     a.u. after    3 cycles
 SCF Done:  E(RwB97XD) =  -782.738354685     a.u. after    2 cycles
 Optimization completed.
    -- Stationary point found.

                         Standard orientation:
 ---------------------------------------------------------------------
 Center     Atomic      Atomic             Coordinates (Angstroms)
 Number     Number       Type             X           Y           Z
 ---------------------------------------------------------------------
      1          6           0       -0.448243    1.753139   -0.231025
      2          6           0       -0.283530    0.325621    0.245562
      3          6           0       -0.511797    0.137841    1.732891
      4         17           0       -1.384429   -0.755029   -0.682660
      5          7           0        1.136847   -0.180518   -0.095408
      6          8           0        1.791318    0.479696   -0.864967
      7          8           0        1.487490   -1.208326    0.428894
      8          1           0       -0.273688    1.833149   -1.312556
      9          1           0        0.265316    2.410197    0.292657
     10          1           0       -1.473543    2.084497   -0.002739
     11          1           0       -0.377383   -0.915092    2.016620
     12          1           0       -1.535495    0.457168    1.983080
     13          1           0        0.203114    0.758641    2.300036
 ---------------------------------------------------------------------

 The electronic state is 1-A.
 Alpha  occ. eigenvalues -- -101.68963 -19.30132 -19.29941 -14.69192 -10.42973
 Alpha  occ. eigenvalues --  -10.32113 -10.31888  -9.59779  -7.35190  -7.34179
 Alpha  occ. eigenvalues --   -7.34137  -1.35003  -1.17293  -1.00939  -0.89264
 Alpha  occ. eigenvalues --   -0.82027  -0.80813  -0.66808  -0.65330  -0.63243
 Alpha  occ. eigenvalues --   -0.61353  -0.56495  -0.54876  -0.51938  -0.51117
 Alpha  occ. eigenvalues --   -0.47770  -0.47483  -0.42550  -0.41062  -0.39960
 Alpha  occ. eigenvalues --   -0.39326  -0.38828
 Alpha virt. eigenvalues --   -0.00486   0.09786   0.13018   0.14903   0.18307
 Alpha virt. eigenvalues --    0.19535   0.21457   0.22096   0.22362   0.25893
 Alpha virt. eigenvalues --    0.27101   0.36943   0.43657   0.45134   0.49602

 Mulliken charges:
               1
     1  C   -0.219872
     2  C   -0.164934
     3  C   -0.242064
     4  Cl  -0.070990
     5  N    0.256233
     6  O   -0.230852
     7  O   -0.228508
     8  H    0.159766
     9  H    0.140187
    10  H    0.143396
    11  H    0.170370
    12  H    0.146879
    13  H    0.140389
 Sum of Mulliken charges =  -0.00000

 Dipole moment (field-independent basis, Debye):
    X=             -2.2341    Y=              2.2216    Z=              1.7268  Tot=              3.5928
  Exact polarizability:  52.892   2.804  55.482   0.447  -3.067  51.408
 Approx polarizability:  59.403   6.039  68.933   0.528  -8.201  60.516
 Evaluate density.
 Using the total density.
 Monte-Carlo method of calculating molar volume:
 based on  0.001 e/bohr**3 density envelope.
 Number of points per bohr**3 =  100 CutOff= 1.00D-04
 Using the SCF density.
 There are      1924 points.  Will hold      1924 in memory.
 LenV=  1048321564 MDV=  1048576000.

                      1                      2                      3
                      A                      A                      A
 Frequencies --     24.7617               219.7084               254.7405
 Red. masses --     10.5316                 8.4479                 1.1376
 Frc consts  --      0.0038                 0.2403                 0.0435
 IR Inten    --      0.2094                 4.7760                 0.1731

                      4                      5                      6
                      A                      A                      A
 Frequencies --    292.5091               299.7079               346.8257
 Red. masses --      2.3760                 1.1329                 4.7438
 Frc consts  --      0.1198                 0.0600                 0.3362
 IR Inten    --      0.0792                 0.1387                 3.0218

                      7                      8                      9
                      A                      A                      A
 Frequencies --    362.9130               385.8637               533.8630
 Red. masses --      2.7624                 2.8032                 5.5873
 Frc consts  --      0.2144                 0.2459                 0.9382
 IR Inten    --      0.5202                 3.7224                 7.7382

                     10                     11                     12
                      A                      A                      A
 Frequencies --    569.3927               693.4978               781.1335
 Red. masses --      4.6685                 4.1661                 5.3561
 Frc consts  --      0.8918                 1.1805                 1.9255
 IR Inten    --     12.7577                32.8852                 0.3213

                     13                     14                     15
                      A                      A                      A
 Frequencies --    901.9406               961.2851               966.6145
 Red. masses --      7.4539                 2.5202                 1.3727
 Frc consts  --      3.5727                 1.3721                 0.7557
 IR Inten    --     31.2525                 9.7642                 0.4713

                     16                     17                     18
                      A                      A                      A
 Frequencies --   1032.8953              1177.2119              1212.3611
 Red. masses --      1.2870                 1.9704                 2.1486
 Frc consts  --      0.8090                 1.6088                 1.8606
 IR Inten    --      0.5973                45.3584                28.5597

                     19                     20                     21
                      A                      A                      A
 Frequencies --   1277.1336              1415.8407              1429.8683
 Red. masses --      3.1908                 1.3639                 1.3105
 Frc consts  --      3.0664                 1.6109                 1.5786
 IR Inten    --      9.0033                29.4213                10.6621

                     22                     23                     24
                      A                      A                      A
 Frequencies --   1470.4568              1471.1321              1485.5824
 Red. masses --      1.0466                 1.0587                 1.0531
 Frc consts  --      1.3333                 1.3500                 1.3693
 IR Inten    --      0.2856                 3.8381                 6.6640

                     25                     26                     27
                      A                      A                      A
 Frequencies --   1490.8490              1506.1903              1785.2407
 Red. masses --      1.5990                 2.3206                14.0178
 Frc consts  --      2.0940                 3.1018                26.3223
 IR Inten    --     10.8219               106.8125               277.5534

                     28                     29                     30
                      A                      A                      A
 Frequencies --   3058.2533              3065.7100              3155.3458
 Red. masses --      1.0388                 1.0383                 1.1048
 Frc consts  --      5.7244                 5.7494                 6.4809
 IR Inten    --      3.3557                 6.1172                 1.1353

                     31                     32                     33
                      A                      A                      A
 Frequencies --   3162.3429              3192.2791              3192.7339
 Red. masses --      1.1052                 1.1053                 1.1059
 Frc consts  --      6.5119                 6.6363                 6.6417
 IR Inten    --      5.9867                 0.0419                 0.5357

 Normal termination of Gaussian 16 at Tue Apr  2 14:55:04 2024.
