 Gaussian 16, Revision B.01,
 Gaussian 16:  ES64L-G16RevB.01 20-Dec-2017

 ----------------------------------------------------------------------
 #T wB97XD/def2svpp opt=tight freq int(grid=ultrafine) scf=(verytight,q
 c) Volume=tight
 ----------------------------------------------------------------------
 -------
 Monomer
 -------
 Symbolic Z-matrix:
 Charge =  0 Multiplicity = 1

 SCF Done:  E(RwB97XD) =  -326.793482992     a.u. after    7 cycles
 SCF Done:  E(RwB97XD) =  -326.795438965     a.u. after    5 cycles
 SCF Done:  E(RwB97XD) =  -326.795468524     a.u. after    4 cycles
 SCF Done:  E(RwB97XD) =  -326.795472651     a.u. after    2 cycles
 SCF Done:  E(RwB97XD) =  -326.795472833     a.u. after    2 cycles
 SCF Done:  E(RwB97XD) =  -326.795472759     a.u. after    2 cycles
 SCF Done:  E(RwB97XD) =  -326.795472863     a.u. after    2 cycles
 SCF Done:  E(RwB97XD) =  -326.795472865     a.u. after    2 cycles
 SCF Done:  E(RwB97XD) =  -326.795472865     a.u. after    2 cycles
 SCF Done:  E(RwB97XD) =  -326.795472866     a.u. after    2 cycles
 SCF Done:  E(RwB97XD) =  -326.795472867     a.u. after    2 cycles
 SCF Done:  E(RwB97XD) =  -326.795472867     a.u. after    2 cycles
 Optimization completed.
    -- Stationary point found.
 Normal termination of Gaussian 16 at Fri Mar 29 15:38:05 2024.

 ---------------------------------------------------------------------
 #T Geom=AllCheck Guess=TCheck SCRF=Check GenChk RwB97XD/def2SVPP Freq
 ---------------------------------------------------------------------
 Structure from the checkpoint file:  "monomer.chk"
 -------
 Monomer
 -------
 Charge =  0 Multiplicity = 1

                         Standard orientation:
 ---------------------------------------------------------------------
 Center     Atomic      Atomic             Coordinates (Angstroms)
 Number     Number       Type             X           Y           Z
 ---------------------------------------------------------------------
      1          6           0        0.962293   -0.819507   -1.261482
      2          6           0        0.569616   -0.030120    0.000001
      3          6           0        0.962301   -0.819454    1.261512
      4          6           0        1.283128    1.324544   -0.000030
      5          6           0       -0.952766    0.223004   -0.000000
      6          7           0       -1.740164   -0.892799   -0.000002
      7          8           0       -1.435796    1.335788   -0.000001
      8          1           0        0.511815   -1.827419   -1.286510
      9          1           0        2.058548   -0.947753   -1.300094
     10          1           0        0.649675   -0.286022   -2.175769
     11          1           0        0.649724   -0.285912    2.175780
     12          1           0        2.058552   -0.947735    1.300101
     13          1           0        0.511788   -1.827350    1.286605
     14          1           0        1.008029    1.916911   -0.887303
     15          1           0        2.377285    1.174660   -0.000013
     16          1           0        1.008008    1.916961    0.887204
     17          1           0       -1.368529   -1.831932    0.000013
     18          1           0       -2.744811   -0.761929    0.000008
 ---------------------------------------------------------------------

 SCF Done:  E(RwB97XD) =  -326.795472867     a.u. after    1 cycles

 The electronic state is 1-A.
 Alpha  occ. eigenvalues --  -19.21287 -14.45731 -10.39286 -10.31732 -10.29339
 Alpha  occ. eigenvalues --  -10.29338 -10.27556  -1.12238  -0.99129  -0.91136
 Alpha  occ. eigenvalues --   -0.78453  -0.77311  -0.71941  -0.65061  -0.61546
 Alpha  occ. eigenvalues --   -0.56482  -0.53913  -0.52519  -0.50622  -0.49761
 Alpha  occ. eigenvalues --   -0.47175  -0.46188  -0.44940  -0.43926  -0.41648
 Alpha  occ. eigenvalues --   -0.41501  -0.34948  -0.32751
 Alpha virt. eigenvalues --    0.11065   0.11407   0.15472   0.17959   0.18309
 Alpha virt. eigenvalues --    0.19250   0.20409   0.20715   0.23996   0.24412
 Alpha virt. eigenvalues --    0.25502   0.26998   0.27098   0.29070   0.32011

 Mulliken charges:
               1
     1  C   -0.270057
     2  C   -0.339297
     3  C   -0.270055
     4  C   -0.240014
     5  C    0.212122
     6  N   -0.424883
     7  O   -0.252177
     8  H    0.102271
     9  H    0.122853
    10  H    0.131267
    11  H    0.131267
    12  H    0.122853
    13  H    0.102270
    14  H    0.126301
    15  H    0.106309
    16  H    0.126303
    17  H    0.253757
    18  H    0.258910
 Sum of Mulliken charges =  -0.00000

 Dipole moment (field-independent basis, Debye):
    X=              0.6038    Y=             -3.5192    Z=              0.0000  Tot=              3.5707
  Exact polarizability:  62.922   1.049  64.948  -0.000  -0.000  52.898
 Approx polarizability:  63.900  -1.396  73.701  -0.000  -0.000  55.229
   1 Symmetry operations used in ECPInt.
 ECPInt:  NShTT=    2080 NPrTT=    8380 LenC2=    2075 LenP2D=    6853.
 LDataN:  DoStor=T MaxTD1= 6 Len=  172
 Calling FoFJK, ICntrl=    100127 FMM=F ISym2X=0 I1Cent= 0 IOpClX= 0 NMat=1 NMatS=1 NMatT=0.
 Full mass-weighted force constant matrix:
 Low frequencies ---   -0.0004    0.0008    0.0008    6.0260    6.4302   10.8304
 Low frequencies ---   38.4104  200.4744  238.3098
 Diagonal vibrational polarizability:

                      1                      2                      3
                      A                      A                      A
 Frequencies --     38.2550               200.4744               238.3094
 Red. masses --      4.3206                 1.1168                 2.0837
 Frc consts  --      0.0037                 0.0264                 0.0697
 IR Inten    --      5.7951                10.2597                81.9904

                      4                      5                      6
                      A                      A                      A
 Frequencies --    264.2916               269.9875               277.9924
 Red. masses --      1.0584                 1.0429                 2.8044
 Frc consts  --      0.0436                 0.0448                 0.1277
 IR Inten    --     79.5672                 0.1564                 4.4640

                      7                      8                      9
                      A                      A                      A
 Frequencies --    308.6807               358.4488               381.6200
 Red. masses --      1.2389                 2.8094                 2.6226
 Frc consts  --      0.0696                 0.2127                 0.2250
 IR Inten    --     35.6744                 5.4813                 0.2944

                     10                     11                     12
                      A                      A                      A
 Frequencies --    390.0367               495.4780               575.1852
 Red. masses --      2.2033                 2.6850                 1.1112
 Frc consts  --      0.1975                 0.3884                 0.2166
 IR Inten    --      1.1241                 3.1781                 9.4194

                     13                     14                     15
                      A                      A                      A
 Frequencies --    577.1150               719.2106               796.3861
 Red. masses --      3.4075                 3.0066                 5.1463
 Frc consts  --      0.6687                 0.9163                 1.9231
 IR Inten    --      6.5369                 4.4442                 6.9573

                     16                     17                     18
                      A                      A                      A
 Frequencies --    881.0133               959.9470               965.3720
 Red. masses --      2.1025                 1.5865                 1.5370
 Frc consts  --      0.9615                 0.8614                 0.8439
 IR Inten    --      5.2836                 1.6059                 2.2734

                     19                     20                     21
                      A                      A                      A
 Frequencies --    976.0469              1050.0371              1057.2069
 Red. masses --      1.2108                 1.4443                 1.4372
 Frc consts  --      0.6796                 0.9382                 0.9464
 IR Inten    --      0.2943                 0.6090                 0.0013

                     22                     23                     24
                      A                      A                      A
 Frequencies --   1107.3247              1251.0998              1259.7609
 Red. masses --      1.7475                 2.4711                 2.8455
 Frc consts  --      1.2625                 2.2789                 2.6607
 IR Inten    --      1.1706                41.2150                 4.0686

                     25                     26                     27
                      A                      A                      A
 Frequencies --   1276.1186              1384.7057              1409.1546
 Red. masses --      2.8913                 2.3776                 1.2459
 Frc consts  --      2.7741                 2.6860                 1.4577
 IR Inten    --      8.1934                67.9176                 6.9842

                     28                     29                     30
                      A                      A                      A
 Frequencies --   1417.8210              1441.6996              1471.9366
 Red. masses --      1.4407                 1.2796                 1.0436
 Frc consts  --      1.7063                 1.5670                 1.3322
 IR Inten    --      4.7882                16.0081                 0.0000

                     31                     32                     33
                      A                      A                      A
 Frequencies --   1474.7941              1478.3097              1496.6630
 Red. masses --      1.0465                 1.0449                 1.0565
 Frc consts  --      1.3411                 1.3455                 1.3944
 IR Inten    --      0.7407                 0.6995                 8.0583

                     34                     35                     36
                      A                      A                      A
 Frequencies --   1500.8069              1512.5811              1634.2522
 Red. masses --      1.0617                 1.0940                 1.3002
 Frc consts  --      1.4090                 1.4747                 2.0459
 IR Inten    --      6.9434                29.7174               147.2316

                     37                     38                     39
                      A                      A                      A
 Frequencies --   1855.3302              3027.4041              3029.9214
 Red. masses --     10.4518                 1.0370                 1.0375
 Frc consts  --     21.1974                 5.5996                 5.6116
 IR Inten    --    306.2444                22.7007                23.4618

                     40                     41                     42
                      A                      A                      A
 Frequencies --   3042.8852              3117.0020              3120.1435
 Red. masses --      1.0390                 1.1047                 1.1037
 Frc consts  --      5.6683                 6.3235                 6.3309
 IR Inten    --     18.0534                 0.1512                48.6952

                     43                     44                     45
                      A                      A                      A
 Frequencies --   3126.4911              3127.2507              3135.2896
 Red. masses --      1.1056                 1.1052                 1.1036
 Frc consts  --      6.3672                 6.3681                 6.3917
 IR Inten    --      9.3626                14.5569                25.0308

                     46                     47                     48
                      A                      A                      A
 Frequencies --   3153.5189              3603.5517              3727.9393
 Red. masses --      1.1047                 1.0459                 1.1047
 Frc consts  --      6.4730                 8.0018                 9.0457
 IR Inten    --     12.3713                44.0038                42.2831

 Optimization completed.
    -- Stationary point found.
 Normal termination of Gaussian 16 at Fri Mar 29 15:39:30 2024.
