 Gaussian 16, Revision B.01,
 Gaussian 16:  ES64L-G16RevB.01 20-Dec-2017

 ----------------------------------------------------------------------
 #T wB97XD/def2svpp opt=tight freq int(grid=ultrafine) scf=(verytight,q
 c)
 ----------------------------------------------------------------------
 --------------
 Comment gs min
 --------------
 Symbolic Z-matrix:
 Charge =  0 Multiplicity = 1

 SCF Done:  E(RwB97XD) =  -5463.17037646     a.u. after    7 cycles
 SCF Done:  E(RwB97XD) =  -5463.17338562     a.u. after    5 cycles
 SCF Done:  E(RwB97XD) =  -5463.17356496     a.u. after    4 cycles
 SCF Done:  E(RwB97XD) =  -5463.17389644     a.u. after    5 cycles
 SCF Done:  E(RwB97XD) =  -5463.17400590     a.u. after    5 cycles
 SCF Done:  E(RwB97XD) =  -5463.17426403     a.u. after    5 cycles
 SCF Done:  E(RwB97XD) =  -5463.17484108     a.u. after    7 cycles
 SCF Done:  E(RwB97XD) =  -5463.17506671     a.u. after    9 cycles
 SCF Done:  E(RwB97XD) =  -5463.17423506     a.u. after   11 cycles
 SCF Done:  E(RwB97XD) =  -5463.17528347     a.u. after    9 cycles
 SCF Done:  E(RwB97XD) =  -5463.17579332     a.u. after    2 cycles
 SCF Done:  E(RwB97XD) =  -5463.17579332     a.u. after    2 cycles
 SCF Done:  E(RwB97XD) =  -5463.17579332     a.u. after    2 cycles
 SCF Done:  E(RwB97XD) =  -5463.17579332     a.u. after    2 cycles
 SCF Done:  E(RwB97XD) =  -5463.17579332     a.u. after    2 cycles
 SCF Done:  E(RwB97XD) =  -5463.17579332     a.u. after    2 cycles
 SCF Done:  E(RwB97XD) =  -5463.17579332     a.u. after    2 cycles
 SCF Done:  E(RwB97XD) =  -5463.17579332     a.u. after    2 cycles
 SCF Done:  E(RwB97XD) =  -5463.17579332     a.u. after    2 cycles
 Optimization completed.
    -- Stationary point found.
 Normal termination of Gaussian 16 at Tue Jul 11 16:04:35 2023.

 ---------------------------------------------------------------------
 #T Geom=AllCheck Guess=TCheck SCRF=Check GenChk RwB97XD/def2SVPP Freq
 ---------------------------------------------------------------------
 Structure from the checkpoint file:  "46.chk"
 --------------
 Comment gs min
 --------------
 Charge =  0 Multiplicity = 1

                         Standard orientation:
 ---------------------------------------------------------------------
 Center     Atomic      Atomic             Coordinates (Angstroms)
 Number     Number       Type             X           Y           Z
 ---------------------------------------------------------------------
      1          6           0       -1.758693    1.317221   -1.260742
      2          6           0       -2.417770    0.769714    0.000032
      3          6           0       -1.758635    1.317258    1.260760
      4          6           0       -3.923177    1.012533    0.000063
      5         35           0       -2.149836   -1.211346    0.000056
      6          1           0       -1.907204    2.412650   -1.294546
      7          1           0       -2.204805    0.880535   -2.169540
      8          1           0       -0.673805    1.122108   -1.264010
      9          1           0       -2.204710    0.880603    2.169592
     10          1           0       -1.907140    2.412689    1.294536
     11          1           0       -0.673748    1.122140    1.263988
     12          1           0       -4.400398    0.580298   -0.894847
     13          1           0       -4.111074    2.102306    0.000051
     14          1           0       -4.400358    0.580324    0.895007
     15          6           0        1.758654   -1.317250   -1.260778
     16          6           0        2.417774   -0.769714   -0.000038
     17          6           0        1.758687   -1.317233    1.260726
     18          6           0        3.923182   -1.012526   -0.000057
     19         35           0        2.149831    1.211345   -0.000047
     20          1           0        1.907165   -2.412679   -1.294563
     21          1           0        2.204735   -0.880583   -2.169600
     22          1           0        0.673766   -1.122138   -1.264016
     23          1           0        2.204801   -0.880564    2.169531
     24          1           0        1.907188   -2.412664    1.294514
     25          1           0        0.673802   -1.122109    1.263995
     26          1           0        4.111083   -2.102299   -0.000051
     27          1           0        4.400393   -0.580295    0.894860
     28          1           0        4.400369   -0.580310   -0.894994
 ---------------------------------------------------------------------

 SCF Done:  E(RwB97XD) =  -5463.17579332     a.u. after    1 cycles

 The electronic state is 1-A.
 Alpha  occ. eigenvalues -- -483.03760-483.03760 -62.61948 -62.61947 -56.42698
 Alpha  occ. eigenvalues --  -56.42698 -56.42373 -56.42373 -56.42369 -56.42368
 Alpha  occ. eigenvalues --  -10.36556 -10.36555 -10.29507 -10.29507 -10.29087
 Alpha  occ. eigenvalues --  -10.29086 -10.29086 -10.29085  -8.78865  -8.78865
 Alpha  occ. eigenvalues --   -6.61324  -6.61324  -6.60141  -6.60141  -6.60130
 Alpha  occ. eigenvalues --   -6.60130  -2.71698  -2.71698  -2.71370  -2.71370
 Alpha  occ. eigenvalues --   -2.71361  -2.71361  -2.70418  -2.70418  -2.70418
 Alpha  occ. eigenvalues --   -2.70418  -0.94007  -0.93873  -0.82970  -0.82802
 Alpha  occ. eigenvalues --   -0.78902  -0.78773  -0.78692  -0.78538  -0.63565
 Alpha  occ. eigenvalues --   -0.63204  -0.55347  -0.55261  -0.54154  -0.53858
 Alpha  occ. eigenvalues --   -0.53836  -0.53520  -0.48634  -0.48565  -0.48508
 Alpha  occ. eigenvalues --   -0.48000  -0.45837  -0.45393  -0.43492  -0.43392
 Alpha  occ. eigenvalues --   -0.43334  -0.43311  -0.40635  -0.40534  -0.35140
 Alpha  occ. eigenvalues --   -0.35051  -0.35015  -0.34708
 Alpha virt. eigenvalues --    0.06919   0.07529   0.12125   0.13934   0.18177
 Alpha virt. eigenvalues --    0.19060   0.19242   0.19259   0.19446   0.19785
 Alpha virt. eigenvalues --    0.19896   0.20450   0.21178   0.22117   0.23657

 Mulliken charges:
               1
     1  C   -0.255799
     2  C   -0.322917
     3  C   -0.255799
     4  C   -0.239529
     5  Br  -0.121463
     6  H    0.121416
     7  H    0.130232
     8  H    0.151566
     9  H    0.130232
    10  H    0.121416
    11  H    0.151567
    12  H    0.133460
    13  H    0.122157
    14  H    0.133460
    15  C   -0.255799
    16  C   -0.322917
    17  C   -0.255799
    18  C   -0.239529
    19  Br  -0.121462
    20  H    0.121416
    21  H    0.130232
    22  H    0.151566
    23  H    0.130232
    24  H    0.121416
    25  H    0.151567
    26  H    0.122157
    27  H    0.133460
    28  H    0.133460
 Sum of Mulliken charges =  -0.00000

 Dipole moment (field-independent basis, Debye):
    X=              0.0000    Y=              0.0000    Z=             -0.0000  Tot=              0.0000
  Exact polarizability: 128.533 -10.802 134.005  -0.000  -0.000 103.786
 Approx polarizability: 124.320  -5.955 157.052  -0.000  -0.000 117.486
   1 Symmetry operations used in ECPInt.
 ECPInt:  NShTT=    5886 NPrTT=   26344 LenC2=    5624 LenP2D=   17707.
 LDataN:  DoStor=T MaxTD1= 6 Len=  172
 Calling FoFJK, ICntrl=    100127 FMM=F ISym2X=0 I1Cent= 0 IOpClX= 0 NMat=1 NMatS=1 NMatT=0.
 Full mass-weighted force constant matrix:
 Low frequencies ---   -5.3446   -0.0070    0.0068    0.0103    5.3387   10.1247
 Low frequencies ---   27.7483   39.3984   46.8796
 Diagonal vibrational polarizability:

                      1                      2                      3
                      A                      A                      A
 Frequencies --     27.7483                39.3975                46.8796
 Red. masses --      4.3563                17.1818                 4.3427
 Frc consts  --      0.0020                 0.0157                 0.0056
 IR Inten    --      1.4989                 0.0000                 3.1277

                      4                      5                      6
                      A                      A                      A
 Frequencies --     56.5378                56.7751                59.8763
 Red. masses --      2.7344                 3.0259                 4.5724
 Frc consts  --      0.0051                 0.0057                 0.0097
 IR Inten    --      0.0895                 0.0000                 0.0000

                      7                      8                      9
                      A                      A                      A
 Frequencies --    252.0310               259.2714               278.4996
 Red. masses --      1.0114                 1.0295                 2.3454
 Frc consts  --      0.0379                 0.0408                 0.1072
 IR Inten    --      0.0000                 0.1157                 0.0000

                     10                     11                     12
                      A                      A                      A
 Frequencies --    280.9049               281.5163               281.5615
 Red. masses --      2.6358                 2.0240                 2.5729
 Frc consts  --      0.1225                 0.0945                 0.1202
 IR Inten    --      0.0000                 0.4433                 2.1408

                     13                     14                     15
                      A                      A                      A
 Frequencies --    310.4372               311.1348               312.0940
 Red. masses --      1.1035                 1.0858                 2.1237
 Frc consts  --      0.0627                 0.0619                 0.1219
 IR Inten    --      0.0000                 0.6356                 0.0000

                     16                     17                     18
                      A                      A                      A
 Frequencies --    313.0921               321.0271               323.6838
 Red. masses --      3.9574                 1.1766                 1.3696
 Frc consts  --      0.2286                 0.0714                 0.0845
 IR Inten    --      8.7207                 0.1846                 0.0000

                     19                     20                     21
                      A                      A                      A
 Frequencies --    408.6540               409.0869               413.1121
 Red. masses --      2.3179                 2.3226                 2.3153
 Frc consts  --      0.2281                 0.2290                 0.2328
 IR Inten    --      0.0877                 0.0000                 0.2250

                     22                     23                     24
                      A                      A                      A
 Frequencies --    414.6061               541.5135               541.7703
 Red. masses --      2.3304                 2.6576                 2.6640
 Frc consts  --      0.2360                 0.4591                 0.4607
 IR Inten    --      0.0000                 0.0000                38.8441

                     25                     26                     27
                      A                      A                      A
 Frequencies --    834.9460               834.9580               954.9619
 Red. masses --      2.9795                 2.9672                 1.5302
 Frc consts  --      1.2238                 1.2188                 0.8222
 IR Inten    --      0.0000                15.8107                 0.0000

                     28                     29                     30
                      A                      A                      A
 Frequencies --    955.2998               955.8107               956.0123
 Red. masses --      1.5296                 1.5221                 1.5223
 Frc consts  --      0.8225                 0.8193                 0.8197
 IR Inten    --      0.4660                 0.7684                 0.0000

                     31                     32                     33
                      A                      A                      A
 Frequencies --    986.2408               986.2699              1060.2480
 Red. masses --      1.2022                 1.2027                 1.4155
 Frc consts  --      0.6890                 0.6893                 0.9375
 IR Inten    --      0.0560                 0.0000                 1.3611

                     34                     35                     36
                      A                      A                      A
 Frequencies --   1060.6167              1060.8627              1061.2531
 Red. masses --      1.4128                 1.4126                 1.4095
 Frc consts  --      0.9364                 0.9366                 0.9353
 IR Inten    --      0.0000                 0.0000                 0.0518

                     37                     38                     39
                      A                      A                      A
 Frequencies --   1183.9469              1193.1374              1278.1754
 Red. masses --      1.8609                 1.8836                 2.5424
 Frc consts  --      1.5368                 1.5799                 2.4472
 IR Inten    --      0.0000               150.3721                 0.0000

                     40                     41                     42
                      A                      A                      A
 Frequencies --   1279.6093              1280.1932              1280.3072
 Red. masses --      2.5451                 2.5482                 2.5728
 Frc consts  --      2.4553                 2.4605                 2.4848
 IR Inten    --      0.0000                14.3076                 6.2249

                     43                     44                     45
                      A                      A                      A
 Frequencies --   1413.3108              1414.7762              1415.2302
 Red. masses --      1.3115                 1.3147                 1.3143
 Frc consts  --      1.5435                 1.5505                 1.5510
 IR Inten    --     23.9096                 0.0000                 0.0000

                     46                     47                     48
                      A                      A                      A
 Frequencies --   1416.2037              1436.5508              1438.8753
 Red. masses --      1.3052                 1.2291                 1.2298
 Frc consts  --      1.5423                 1.4944                 1.5002
 IR Inten    --     31.6935                 8.1159                 0.0000

                     49                     50                     51
                      A                      A                      A
 Frequencies --   1464.4835              1466.5699              1476.0853
 Red. masses --      1.0433                 1.0436                 1.0444
 Frc consts  --      1.3184                 1.3224                 1.3407
 IR Inten    --      0.0000                 0.5469                 0.0000

                     52                     53                     54
                      A                      A                      A
 Frequencies --   1477.4471              1479.5345              1481.7031
 Red. masses --      1.0432                 1.0433                 1.0484
 Frc consts  --      1.3417                 1.3456                 1.3561
 IR Inten    --      0.7145                 0.0000                 0.3387

                     55                     56                     57
                      A                      A                      A
 Frequencies --   1491.0569              1492.7877              1496.2582
 Red. masses --      1.0633                 1.0631                 1.0593
 Frc consts  --      1.3928                 1.3958                 1.3973
 IR Inten    --     15.9349                 0.0000                18.2301

                     58                     59                     60
                      A                      A                      A
 Frequencies --   1496.5017              1508.5550              1514.3572
 Red. masses --      1.0623                 1.0511                 1.0511
 Frc consts  --      1.4017                 1.4093                 1.4203
 IR Inten    --      0.0000                12.7506                 0.0000

                     61                     62                     63
                      A                      A                      A
 Frequencies --   3030.2502              3030.3008              3030.4885
 Red. masses --      1.0391                 1.0394                 1.0391
 Frc consts  --      5.6215                 5.6232                 5.6225
 IR Inten    --     13.3639                 0.0000                 0.0000

                     64                     65                     66
                      A                      A                      A
 Frequencies --   3031.0117              3035.6215              3036.3700
 Red. masses --      1.0395                 1.0396                 1.0397
 Frc consts  --      5.6268                 5.6445                 5.6479
 IR Inten    --     29.1273                64.3750                 0.0000

                     67                     68                     69
                      A                      A                      A
 Frequencies --   3122.8747              3123.0209              3123.1766
 Red. masses --      1.1019                 1.1018                 1.1015
 Frc consts  --      6.3315                 6.3317                 6.3302
 IR Inten    --      1.1295                 0.0000                 0.0000

                     70                     71                     72
                      A                      A                      A
 Frequencies --   3123.7898              3127.6439              3127.6802
 Red. masses --      1.1013                 1.1012                 1.1010
 Frc consts  --      6.3315                 6.3467                 6.3457
 IR Inten    --      9.0230                 0.0000                47.9933

                     73                     74                     75
                      A                      A                      A
 Frequencies --   3147.7081              3147.8422              3151.6852
 Red. masses --      1.1066                 1.1065                 1.1069
 Frc consts  --      6.4598                 6.4598                 6.4781
 IR Inten    --      0.0000                15.7197                 0.0000

                     76                     77                     78
                      A                      A                      A
 Frequencies --   3153.0814              3153.8544              3155.4195
 Red. masses --      1.1065                 1.1065                 1.1061
 Frc consts  --      6.4812                 6.4848                 6.4887
 IR Inten    --      6.5730                 7.7917                 0.0000

 Optimization completed.
    -- Stationary point found.
 Normal termination of Gaussian 16 at Tue Jul 11 16:09:43 2023.
