 Gaussian 16, Revision B.01,
 Gaussian 16:  ES64L-G16RevB.01 20-Dec-2017

 ----------------------------------------------------------------------
 #T wB97XD/def2svpp opt=tight freq int(grid=ultrafine) scf=(verytight,q
 c)
 ----------------------------------------------------------------------
 -----
 dimer
 -----
 Symbolic Z-matrix:
 Charge =  0 Multiplicity = 1

 SCF Done:  E(RwB97XD) =  -2916.16911257     a.u. after    8 cycles
 SCF Done:  E(RwB97XD) =  -2916.17080516     a.u. after    5 cycles
 SCF Done:  E(RwB97XD) =  -2916.17095279     a.u. after    3 cycles
 SCF Done:  E(RwB97XD) =  -2916.17122544     a.u. after    5 cycles
 SCF Done:  E(RwB97XD) =  -2916.17132853     a.u. after    4 cycles
 SCF Done:  E(RwB97XD) =  -2916.17136110     a.u. after    4 cycles
 SCF Done:  E(RwB97XD) =  -2916.17136887     a.u. after    3 cycles
 SCF Done:  E(RwB97XD) =  -2916.17136893     a.u. after    2 cycles
 SCF Done:  E(RwB97XD) =  -2916.17137636     a.u. after    3 cycles
 SCF Done:  E(RwB97XD) =  -2916.17138152     a.u. after    3 cycles
 SCF Done:  E(RwB97XD) =  -2916.17139362     a.u. after    2 cycles
 SCF Done:  E(RwB97XD) =  -2916.17139362     a.u. after    2 cycles
 SCF Done:  E(RwB97XD) =  -2916.17139362     a.u. after    2 cycles
 SCF Done:  E(RwB97XD) =  -2916.17139362     a.u. after    2 cycles
 SCF Done:  E(RwB97XD) =  -2916.17139362     a.u. after    2 cycles
 SCF Done:  E(RwB97XD) =  -2916.17139362     a.u. after    2 cycles
 SCF Done:  E(RwB97XD) =  -2916.17139362     a.u. after    2 cycles
 SCF Done:  E(RwB97XD) =  -2916.17139362     a.u. after    2 cycles
 SCF Done:  E(RwB97XD) =  -2916.17139362     a.u. after    2 cycles
 Optimization completed.
    -- Stationary point found.

 1\1\GINC-C128\FOpt\RwB97XD\def2SVPP\C4H6Cl6\PETERCHAO1\09-Aug-2022\0\\
 #T wB97XD/def2svpp opt=tight freq int(grid=ultrafine) scf=(verytight,q
 c)\\dimer\\0,1\C,-1.7200610841,0.0001964954,1.5582566744\C,-2.34897652
 39,0.0001424589,0.1802856616\Cl,-1.8392131075,1.4566958388,-0.73011113
 05\Cl,-1.8396596514,-1.4567671683,-0.7297918755\Cl,-4.1323031224,0.000
 4301457,0.3135810649\H,-0.6231291614,0.0000179232,1.4669679538\H,-2.04
 24194673,-0.8987846983,2.1066557573\H,-2.0421444914,0.8993953073,2.106
 4604452\C,1.7203279937,-0.0006739955,-1.5583380982\C,2.3492355888,-0.0

 Normal termination of Gaussian 16 at Tue Aug  9 16:17:44 2022.

 ---------------------------------------------------------------------
 #T Geom=AllCheck Guess=TCheck SCRF=Check GenChk RwB97XD/def2SVPP Freq
 ---------------------------------------------------------------------
 Structure from the checkpoint file:  "/scratch/user/peterchao1/peterchao1/6113296_1660079069000000192342280/Gau-228835.chk"
 -----
 dimer
 -----
 Charge =  0 Multiplicity = 1

                         Standard orientation:
 ---------------------------------------------------------------------
 Center     Atomic      Atomic             Coordinates (Angstroms)
 Number     Number       Type             X           Y           Z
 ---------------------------------------------------------------------
      1          6           0        1.736897   -0.000024   -1.539652
      2          6           0        2.350914   -0.000003   -0.154978
      3         17           0        1.831573    1.456733    0.749695
      4         17           0        1.831599   -1.456730    0.749727
      5         17           0        4.135574    0.000012   -0.269032
      6          1           0        0.639044   -0.000034   -1.460199
      7          1           0        2.065020   -0.899118   -2.084436
      8          1           0        2.065005    0.899062   -2.084457
      9          6           0       -1.736906   -0.000024    1.539656
     10          6           0       -2.350915   -0.000003    0.154978
     11         17           0       -1.831591    1.456747   -0.749682
     12         17           0       -1.831573   -1.456716   -0.749733
     13         17           0       -4.135576   -0.000016    0.269022
     14          1           0       -0.639053   -0.000021    1.460210
     15          1           0       -2.065023   -0.899123    2.084434
     16          1           0       -2.065026    0.899057    2.084462
 ---------------------------------------------------------------------

 SCF Done:  E(RwB97XD) =  -2916.17139362     a.u. after    1 cycles

 The electronic state is 1-A.
 Alpha  occ. eigenvalues -- -101.69588-101.69588-101.69586-101.69586-101.69318
 Alpha  occ. eigenvalues -- -101.69317 -10.48090 -10.48089 -10.32130 -10.32130
 Alpha  occ. eigenvalues --   -9.60416  -9.60415  -9.60414  -9.60414  -9.60174
 Alpha  occ. eigenvalues --   -9.60174  -7.35841  -7.35841  -7.35839  -7.35839
 Alpha  occ. eigenvalues --   -7.35606  -7.35606  -7.34798  -7.34797  -7.34797
 Alpha  occ. eigenvalues --   -7.34797  -7.34765  -7.34764  -7.34764  -7.34763
 Alpha  occ. eigenvalues --   -7.34541  -7.34541  -7.34527  -7.34527  -1.04943
 Alpha  occ. eigenvalues --   -1.04835  -0.93667  -0.93548  -0.93535  -0.93454
 Alpha  occ. eigenvalues --   -0.84907  -0.84736  -0.69145  -0.68744  -0.58672
 Alpha  occ. eigenvalues --   -0.58444  -0.58278  -0.57944  -0.55769  -0.55753
 Alpha  occ. eigenvalues --   -0.50028  -0.49792  -0.49307  -0.49148  -0.44018
 Alpha  occ. eigenvalues --   -0.43671  -0.43204  -0.42908  -0.41185  -0.40767
 Alpha  occ. eigenvalues --   -0.40150  -0.39765  -0.39727  -0.39613  -0.38828
 Alpha  occ. eigenvalues --   -0.38462
 Alpha virt. eigenvalues --    0.05635   0.05884   0.08726   0.08864   0.09178
 Alpha virt. eigenvalues --    0.09524   0.15230   0.17109   0.20590   0.20647
 Alpha virt. eigenvalues --    0.21117   0.22252   0.23235   0.23890   0.44582

 Mulliken charges:
               1
     1  C   -0.212705
     2  C   -0.101993
     3  Cl  -0.044284
     4  Cl  -0.044284
     5  Cl  -0.046432
     6  H    0.143874
     7  H    0.152912
     8  H    0.152912
     9  C   -0.212705
    10  C   -0.101993
    11  Cl  -0.044284
    12  Cl  -0.044284
    13  Cl  -0.046432
    14  H    0.143874
    15  H    0.152912
    16  H    0.152912
 Sum of Mulliken charges =  -0.00000

 Dipole moment (field-independent basis, Debye):
    X=             -0.0000    Y=             -0.0000    Z=              0.0000  Tot=              0.0000
  Exact polarizability: 114.337   0.000  96.205 -10.017  -0.000  83.591
 Approx polarizability: 122.485   0.000 123.016 -11.956  -0.000  98.734
   1 Symmetry operations used in ECPInt.
 ECPInt:  NShTT=    3570 NPrTT=   16498 LenC2=    3278 LenP2D=   10090.
 LDataN:  DoStor=T MaxTD1= 6 Len=  172
 Calling FoFJK, ICntrl=    100127 FMM=F ISym2X=0 I1Cent= 0 IOpClX= 0 NMat=1 NMatS=1 NMatT=0.
 Full mass-weighted force constant matrix:
 Low frequencies ---  -14.1262  -13.5051   -5.6245    0.0023    0.0028    0.0036
 Low frequencies ---   25.0572   29.0477   31.6998
 Diagonal vibrational polarizability:

                      1                      2                      3
                      A                      A                      A
 Frequencies --     25.0572                29.0477                31.6997
 Red. masses --      9.9904                18.5594                 9.7843
 Frc consts  --      0.0037                 0.0092                 0.0058
 IR Inten    --      0.6653                 0.1924                 2.7515

                      4                      5                      6
                      A                      A                      A
 Frequencies --     33.2783                35.7589                47.8380
 Red. masses --     21.9125                13.1838                 8.0254
 Frc consts  --      0.0143                 0.0099                 0.0108
 IR Inten    --      0.0000                 0.0000                 0.0000

                      7                      8                      9
                      A                      A                      A
 Frequencies --    241.6027               246.6034               247.5117
 Red. masses --      9.6850                10.2816                10.1389
 Frc consts  --      0.3331                 0.3684                 0.3660
 IR Inten    --      0.0000                 0.0000                 0.5784

                     10                     11                     12
                      A                      A                      A
 Frequencies --    250.2791               314.9251               317.3119
 Red. masses --     10.6260                 1.0194                 1.0248
 Frc consts  --      0.3922                 0.0596                 0.0608
 IR Inten    --      3.0339                 0.0000                 0.0271

                     13                     14                     15
                      A                      A                      A
 Frequencies --    351.6886               352.8397               353.0125
 Red. masses --     12.6601                 4.1381                13.1085
 Frc consts  --      0.9226                 0.3035                 0.9625
 IR Inten    --      3.8683                 1.4796                 0.0000

                     16                     17                     18
                      A                      A                      A
 Frequencies --    354.2787               358.4883               359.4593
 Red. masses --      4.2253                 4.1066                 4.1373
 Frc consts  --      0.3125                 0.3109                 0.3150
 IR Inten    --      0.0000                 4.4837                 0.0000

                     19                     20                     21
                      A                      A                      A
 Frequencies --    539.8232               541.2393               731.4852
 Red. masses --      7.6148                 7.5851                 4.5661
 Frc consts  --      1.3074                 1.3092                 1.4395
 IR Inten    --      0.0000                21.2687                 0.0000

                     22                     23                     24
                      A                      A                      A
 Frequencies --    736.6799               738.0611               741.4347
 Red. masses --      4.4453                 4.3439                 4.4161
 Frc consts  --      1.4214                 1.3942                 1.4303
 IR Inten    --    186.9693               260.5388                 0.0000

                     25                     26                     27
                      A                      A                      A
 Frequencies --   1110.5292              1111.3975              1112.8146
 Red. masses --      1.5637                 2.0725                 3.3151
 Frc consts  --      1.1362                 1.5083                 2.4188
 IR Inten    --      0.0000               114.1565                 0.0000

                     28                     29                     30
                      A                      A                      A
 Frequencies --   1115.0938              1116.5071              1121.1742
 Red. masses --      1.9310                 2.9905                 1.5873
 Frc consts  --      1.4147                 2.1964                 1.1756
 IR Inten    --      0.0000                61.4023                91.6614

                     31                     32                     33
                      A                      A                      A
 Frequencies --   1422.3572              1424.8985              1472.6381
 Red. masses --      1.2671                 1.2633                 1.0404
 Frc consts  --      1.5104                 1.5112                 1.3294
 IR Inten    --     18.1918                 0.0000                 9.0116

                     34                     35                     36
                      A                      A                      A
 Frequencies --   1474.1412              1475.0113              1477.4249
 Red. masses --      1.0417                 1.0403                 1.0406
 Frc consts  --      1.3337                 1.3335                 1.3382
 IR Inten    --      0.0000                 8.9014                 0.0000

                     37                     38                     39
                      A                      A                      A
 Frequencies --   3061.1840              3061.4729              3173.9067
 Red. masses --      1.0354                 1.0354                 1.1073
 Frc consts  --      5.7167                 5.7179                 6.5718
 IR Inten    --      0.0001                 6.8076                 0.0000

                     40                     41                     42
                      A                      A                      A
 Frequencies --   3173.9991              3175.3210              3176.0020
 Red. masses --      1.1072                 1.1086                 1.1084
 Frc consts  --      6.5716                 6.5855                 6.5874
 IR Inten    --      0.9986                 0.0000                 4.8031

 Optimization completed.
    -- Stationary point found.

 1\1\GINC-C128\Freq\RwB97XD\def2SVPP\C4H6Cl6\PETERCHAO1\09-Aug-2022\0\\
 #T Geom=AllCheck Guess=TCheck SCRF=Check GenChk RwB97XD/def2SVPP Freq\
 \dimer\\0,1\C,-1.7200610841,0.0001964954,1.5582566744\C,-2.3489765239,
 0.0001424589,0.1802856616\Cl,-1.8392131075,1.4566958388,-0.7301111305\
 Cl,-1.8396596514,-1.4567671683,-0.7297918755\Cl,-4.1323031224,0.000430
 1457,0.3135810649\H,-0.6231291614,0.0000179232,1.4669679538\H,-2.04241
 94673,-0.8987846983,2.1066557573\H,-2.0421444914,0.8993953073,2.106460
 4452\C,1.7203279937,-0.0006739955,-1.5583380982\C,2.3492355888,-0.0005

 Normal termination of Gaussian 16 at Tue Aug  9 16:19:42 2022.
