 Gaussian 16, Revision B.01,
 Gaussian 16:  ES64L-G16RevB.01 20-Dec-2017

 --------------------------------------------------------------
 #T wB97XD//def2svpp Volume=tight Geom=AllCheckpoint Guess=Read
 --------------------------------------------------------------
 Structure from the checkpoint file:  "23.chk"
 -------
 Monomer
 -------
 Charge =  0 Multiplicity = 1

                         Standard orientation:
 ---------------------------------------------------------------------
 Center     Atomic      Atomic             Coordinates (Angstroms)
 Number     Number       Type             X           Y           Z
 ---------------------------------------------------------------------
      1          6           0       -0.568525    1.734499   -0.309203
      2          6           0        0.023095    0.358551    0.006635
      3          7           0        0.099683    0.074774    1.442547
      4          6           0       -0.825162   -0.749526   -0.620646
      5          8           0       -2.085268   -0.766206    0.012595
      6          6           0        1.465649    0.246306   -0.526947
      7          8           0        2.070530   -0.926995   -0.078373
      8          1           0       -1.616661    1.788795    0.028659
      9          1           0       -0.544310    1.940788   -1.394487
     10          1           0        0.006048    2.530733    0.197868
     11          1           0       -0.819010   -0.211870    1.782511
     12          1           0        0.386096    0.903380    1.964378
     13          1           0       -0.293849   -1.710105   -0.488230
     14          1           0       -0.923903   -0.553950   -1.707565
     15          1           0       -2.562883   -1.560902   -0.253608
     16          1           0        2.027677    1.149216   -0.196786
     17          1           0        1.471802    0.245531   -1.631604
     18          1           0        1.718781   -1.038398    0.828226
 ---------------------------------------------------------------------

 SCF Done:  E(RwB97XD) =  -363.821161541     A.U. after    1 cycles

 The electronic state is 1-A.
 Alpha  occ. eigenvalues --  -19.26040 -19.22544 -14.42384 -10.33764 -10.33008
 Alpha  occ. eigenvalues --  -10.32567 -10.28343  -1.12348  -1.09813  -0.98394
 Alpha  occ. eigenvalues --   -0.85225  -0.77629  -0.75225  -0.65632  -0.62322
 Alpha  occ. eigenvalues --   -0.59334  -0.56690  -0.55423  -0.51984  -0.50938
 Alpha  occ. eigenvalues --   -0.48513  -0.47821  -0.47023  -0.45421  -0.41214
 Alpha  occ. eigenvalues --   -0.39181  -0.36525  -0.33986  -0.32874
 Alpha virt. eigenvalues --    0.12224   0.14392   0.17222   0.18464   0.19660
 Alpha virt. eigenvalues --    0.20777   0.20997   0.23083   0.23457   0.25871
 Alpha virt. eigenvalues --    0.26288   0.28798   0.29847   0.31192   0.32050

 Mulliken charges:
               1
     1  C   -0.266530
     2  C   -0.214029
     3  N   -0.526388
     4  C    0.056976
     5  O   -0.491213
     6  C    0.104515
     7  O   -0.496020
     8  H    0.134115
     9  H    0.110924
    10  H    0.109919
    11  H    0.243774
    12  H    0.224812
    13  H    0.103799
    14  H    0.089530
    15  H    0.325137
    16  H    0.077414
    17  H    0.093242
    18  H    0.320025
 Sum of Mulliken charges =  -0.00000

 Dipole moment (field-independent basis, Debye):
    X=             -2.2701    Y=              0.5698    Z=              0.1445  Tot=              2.3450
 Evaluate density.
 Using the total density.
 Monte-Carlo method of calculating molar volume:
 based on  0.001 e/bohr**3 density envelope.
 Number of points per bohr**3 =  100 CutOff= 1.00D-04
 Using the SCF density.
 There are      1724 points.  Will hold      1724 in memory.
 LenV=  1048334768 MDV=  1048576000.
 Box volume = 5124.285 fraction occupied=0.180
 Integrated density= 1.7767853598181372D+02 error= 1.1967853598181372D+02

 1\1\GINC-C324\SP\RwB97XD\def2SVPP\C4H11N1O2\PETERCHAO1\23-Sep-2022\0\\
 #T wB97XD//def2svpp Volume=tight Geom=AllCheckpoint Guess=Read\\Monome
 r\\0,1\C,0,-0.568504449,1.734506723,-0.309208471\C,0,0.0230971655,0.35
 8551248,0.0066303356\N,0,0.0996811775,0.0747729377,1.4425415698\C,0,-0
 .825174976,-0.7495148305,-0.6206507928\O,0,-2.0852809133,-0.7661775821
 ,0.0125901755\C,0,1.4656493451,0.2462869095,-0.5269524673\O,0,2.070514
 8078,-0.9270220558,-0.0783777338\H,0,-1.6166392697,1.7888174046,0.0286
 542326\H,0,-0.5442863597,1.9407961238,-1.3944916647\H,0,0.0060789652,2

 Normal termination of Gaussian 16 at Fri Sep 23 14:21:17 2022.
