 Gaussian 16, Revision B.01,
 Gaussian 16:  ES64L-G16RevB.01 20-Dec-2017

 ----------------------------------------------------------------------
 #T wB97XD/def2svpp opt=tight freq int(grid=ultrafine) scf=(verytight,q
 c)
 ----------------------------------------------------------------------
 -------
 comment
 -------
 Symbolic Z-matrix:
 Charge =  1 Multiplicity = 2

 SCF Done:  E(UwB97XD) =  -656.608118744     a.u. after   16 cycles
 SCF Done:  E(UwB97XD) =  -656.612206758     a.u. after    7 cycles
 SCF Done:  E(UwB97XD) =  -656.613437437     a.u. after    6 cycles
 SCF Done:  E(UwB97XD) =  -656.613835723     a.u. after    4 cycles
 SCF Done:  E(UwB97XD) =  -656.614177634     a.u. after    6 cycles
 SCF Done:  E(UwB97XD) =  -656.614590014     a.u. after    6 cycles
 SCF Done:  E(UwB97XD) =  -656.615010892     a.u. after   18 cycles
 SCF Done:  E(UwB97XD) =  -656.615479730     a.u. after    4 cycles
 SCF Done:  E(UwB97XD) =  -656.615704967     a.u. after    9 cycles
 SCF Done:  E(UwB97XD) =  -656.615853766     a.u. after    6 cycles
 SCF Done:  E(UwB97XD) =  -656.621832501     a.u. after    3 cycles
 SCF Done:  E(UwB97XD) =  -656.621833423     a.u. after    3 cycles
 SCF Done:  E(UwB97XD) =  -656.621830963     a.u. after    3 cycles
 SCF Done:  E(UwB97XD) =  -656.621832744     a.u. after    3 cycles
 SCF Done:  E(UwB97XD) =  -656.621833389     a.u. after    3 cycles
 SCF Done:  E(UwB97XD) =  -656.621832924     a.u. after    3 cycles
 SCF Done:  E(UwB97XD) =  -656.621832885     a.u. after    2 cycles
 SCF Done:  E(UwB97XD) =  -656.621833379     a.u. after    3 cycles
 SCF Done:  E(UwB97XD) =  -656.621832880     a.u. after    3 cycles
 Optimization completed.
    -- Stationary point found.
 Normal termination of Gaussian 16 at Mon Jul 10 20:03:48 2023.

 ---------------------------------------------------------------------
 #T Geom=AllCheck Guess=TCheck SCRF=Check GenChk UwB97XD/def2SVPP Freq
 ---------------------------------------------------------------------
 Structure from the checkpoint file:  "19.chk"
 -------
 comment
 -------
 Charge =  1 Multiplicity = 2

                         Standard orientation:
 ---------------------------------------------------------------------
 Center     Atomic      Atomic             Coordinates (Angstroms)
 Number     Number       Type             X           Y           Z
 ---------------------------------------------------------------------
      1          6           0        0.721041   -1.502233   -0.419315
      2          6           0        0.774046   -0.110277    0.134239
      3          6           0        2.040159    0.269301    0.855777
      4          6           0        0.840071    0.932582   -1.363489
      5          6           0       -0.485267    0.422793    0.788879
      6         17           0       -2.007604   -0.003926    0.018792
      7          1           0        1.676557   -1.803896   -0.875473
      8          1           0       -0.111149   -1.659214   -1.123864
      9          1           0        0.531740   -2.183902    0.439608
     10          1           0        2.934907    0.102211    0.233507
     11          1           0        2.143794   -0.409685    1.728655
     12          1           0        2.032562    1.305714    1.228519
     13          1           0       -0.171103    0.743794   -1.756485
     14          1           0        1.670428    0.496664   -1.934062
     15          1           0        1.023542    1.948053   -0.989199
     16          1           0       -0.454947    1.510178    0.958301
     17          1           0       -0.487374   -0.056172    1.794475
 ---------------------------------------------------------------------

 SCF Done:  E(UwB97XD) =  -656.621832880     a.u. after    1 cycles

 The electronic state is 2-A.
 Alpha  occ. eigenvalues -- -101.85622 -10.58431 -10.55347 -10.55271 -10.49036
 Alpha  occ. eigenvalues --  -10.48524  -9.76371  -7.51755  -7.50886  -7.50678
 Alpha  occ. eigenvalues --   -1.17727  -1.11170  -1.00663  -0.99284  -0.96786
 Alpha  occ. eigenvalues --   -0.83866  -0.77159  -0.76806  -0.75154  -0.72341
 Alpha  occ. eigenvalues --   -0.71371  -0.68851  -0.66535  -0.66369  -0.65306
 Alpha  occ. eigenvalues --   -0.64186  -0.60057  -0.56316  -0.55826
 Alpha virt. eigenvalues --   -0.09114  -0.05392  -0.04300  -0.00313   0.00816
 Alpha virt. eigenvalues --    0.01476   0.02896   0.03363   0.03978   0.04462
 Alpha virt. eigenvalues --    0.06912   0.07780   0.07877   0.10247   0.12158

  Beta  occ. eigenvalues -- -101.85569 -10.58099 -10.55288 -10.54691 -10.49007
  Beta  occ. eigenvalues --  -10.48489  -9.76312  -7.51718  -7.50700  -7.50637
  Beta  occ. eigenvalues --   -1.16864  -1.10221  -0.98902  -0.98221  -0.96203
  Beta  occ. eigenvalues --   -0.82323  -0.76287  -0.75441  -0.74307  -0.71513
  Beta  occ. eigenvalues --   -0.70912  -0.67662  -0.66265  -0.65272  -0.64973
  Beta  occ. eigenvalues --   -0.63901  -0.56181  -0.55531
  Beta virt. eigenvalues --   -0.34649  -0.06837  -0.04059  -0.03132  -0.00083
  Beta virt. eigenvalues --    0.01240   0.01782   0.03203   0.03631   0.04318
  Beta virt. eigenvalues --    0.04782   0.07236   0.08098   0.08229   0.10667

 Mulliken charges and spin densities:
               1          2
     1  C   -0.266700   0.012300
     2  C   -0.423005   0.255415
     3  C   -0.275329   0.005262
     4  C   -0.222908   0.458907
     5  C   -0.132499   0.015550
     6  Cl  -0.001749   0.073576
     7  H    0.188862   0.001420
     8  H    0.194061   0.005551
     9  H    0.214092   0.054642
    10  H    0.194044   0.009414
    11  H    0.215161   0.050638
    12  H    0.185315   0.000088
    13  H    0.219152  -0.006470
    14  H    0.225719  -0.006771
    15  H    0.220089  -0.009298
    16  H    0.216296   0.007105
    17  H    0.249400   0.072671
 Sum of Mulliken charges =   1.00000   1.00000

 Dipole moment (field-independent basis, Debye):
    X=              4.0465    Y=              0.7453    Z=             -0.0939  Tot=              4.1156
  Exact polarizability: 100.405   1.759  60.745  -5.651  -1.111  63.765
 Approx polarizability:  90.457   3.074  65.055  -0.043  -1.410  68.952
                          Isotropic Fermi Contact Couplings
        Atom                 a.u.       MegaHertz       Gauss      10(-4) cm-1
     1  C(13)              0.00057       0.63768       0.22754       0.21271
     2  C(13)              0.01570      17.65269       6.29892       5.88830
     3  C(13)              0.00074       0.83519       0.29802       0.27859
     4  C(13)              0.10006     112.48568      40.13769      37.52119
     5  C(13)              0.00001       0.01083       0.00386       0.00361
     6  Cl(35)             0.01285       5.63271       2.00989       1.87887

                      1                      2                      3
                      A                      A                      A
 Frequencies --    109.5961               175.4588               199.9229
 Red. masses --      2.6910                 2.8870                 1.8276
 Frc consts  --      0.0190                 0.0524                 0.0430
 IR Inten    --      3.3619               169.8607                 5.8909

                      4                      5                      6
                      A                      A                      A
 Frequencies --    218.7492               262.5714               272.2277
 Red. masses --      1.5073                 2.6210                 1.2257
 Frc consts  --      0.0425                 0.1065                 0.0535
 IR Inten    --     18.9800                 8.2158                 4.3024

                      7                      8                      9
                      A                      A                      A
 Frequencies --    284.5418               320.3428               378.2829
 Red. masses --      1.1886                 3.4640                 3.0650
 Frc consts  --      0.0567                 0.2094                 0.2584
 IR Inten    --     18.8960                44.0249                 1.0721

                     10                     11                     12
                      A                      A                      A
 Frequencies --    435.3492               476.8575               697.3012
 Red. masses --      1.8224                 3.0769                 1.2849
 Frc consts  --      0.2035                 0.4122                 0.3681
 IR Inten    --     30.7622                 0.3898                37.6602

                     13                     14                     15
                      A                      A                      A
 Frequencies --    749.1177               779.2509               808.4537
 Red. masses --      1.1213                 3.2304                 1.2867
 Frc consts  --      0.3707                 1.1557                 0.4955
 IR Inten    --     24.7337                 1.4981                28.3192

                     16                     17                     18
                      A                      A                      A
 Frequencies --    864.6491               893.0973               963.3082
 Red. masses --      2.8530                 1.2695                 2.0928
 Frc consts  --      1.2567                 0.5966                 1.1442
 IR Inten    --     36.9099                 3.5892                 9.9942

                     19                     20                     21
                      A                      A                      A
 Frequencies --    990.7108              1035.4361              1159.4032
 Red. masses --      1.4007                 1.4448                 1.1640
 Frc consts  --      0.8100                 0.9126                 0.9218
 IR Inten    --      0.4784                43.3323                67.0973

                     22                     23                     24
                      A                      A                      A
 Frequencies --   1192.6973              1238.8686              1247.9985
 Red. masses --      2.1965                 1.7595                 1.4344
 Frc consts  --      1.8410                 1.5911                 1.3163
 IR Inten    --     13.7750                25.6483                51.5007

                     25                     26                     27
                      A                      A                      A
 Frequencies --   1331.5294              1361.4998              1380.5325
 Red. masses --      1.4715                 1.1257                 1.1301
 Frc consts  --      1.5372                 1.2294                 1.2690
 IR Inten    --      3.2976                56.2864                27.2446

                     28                     29                     30
                      A                      A                      A
 Frequencies --   1395.1202              1410.8022              1415.2311
 Red. masses --      1.1153                 1.0944                 1.0745
 Frc consts  --      1.2790                 1.2834                 1.2680
 IR Inten    --     21.1152                11.4391                 6.4722

                     31                     32                     33
                      A                      A                      A
 Frequencies --   1435.5612              1448.3651              1468.2560
 Red. masses --      1.0906                 1.0803                 1.1325
 Frc consts  --      1.3242                 1.3352                 1.4384
 IR Inten    --      3.7501                27.8755                10.3424

                     34                     35                     36
                      A                      A                      A
 Frequencies --   1493.9812              2966.8382              2983.2707
 Red. masses --      1.1076                 1.0636                 1.0526
 Frc consts  --      1.4566                 5.5156                 5.5195
 IR Inten    --     21.0897               168.5517                64.4799

                     37                     38                     39
                      A                      A                      A
 Frequencies --   3006.9662              3060.7234              3109.6963
 Red. masses --      1.0527                 1.0192                 1.0855
 Frc consts  --      5.6082                 5.6253                 6.1846
 IR Inten    --     37.0081                11.4710                 5.9831

                     40                     41                     42
                      A                      A                      A
 Frequencies --   3114.0789              3137.1615              3165.6841
 Red. masses --      1.0805                 1.0939                 1.1081
 Frc consts  --      6.1737                 6.3433                 6.5430
 IR Inten    --      6.9952                 7.0926                 2.7379

                     43                     44                     45
                      A                      A                      A
 Frequencies --   3175.3364              3226.1664              3253.9004
 Red. masses --      1.1086                 1.1144                 1.1162
 Frc consts  --      6.5860                 6.8339                 6.9632
 IR Inten    --      2.2541                15.1762                 3.4582

 Optimization completed.
    -- Stationary point found.
 Normal termination of Gaussian 16 at Mon Jul 10 20:05:35 2023.
