 Gaussian 16, Revision B.01,
 Gaussian 16:  ES64L-G16RevB.01 20-Dec-2017

 ----------------------------------------------------------------------
 #T wB97XD/def2svpp opt=tight freq int(grid=ultrafine) scf=(verytight,q
 c)
 ----------------------------------------------------------------------
 -------
 comment
 -------
 Symbolic Z-matrix:
 Charge =  1 Multiplicity = 2

 SCF Done:  E(UwB97XD) =  -595.276475900     a.u. after    8 cycles
 SCF Done:  E(UwB97XD) =  -595.279626904     a.u. after    7 cycles
 SCF Done:  E(UwB97XD) =  -595.279873656     a.u. after    9 cycles
 SCF Done:  E(UwB97XD) =  -595.279967398     a.u. after    5 cycles
 SCF Done:  E(UwB97XD) =  -595.280003283     a.u. after    5 cycles
 SCF Done:  E(UwB97XD) =  -595.280023247     a.u. after    3 cycles
 SCF Done:  E(UwB97XD) =  -595.280029486     a.u. after    3 cycles
 SCF Done:  E(UwB97XD) =  -595.280030338     a.u. after    3 cycles
 SCF Done:  E(UwB97XD) =  -595.280030638     a.u. after    3 cycles
 SCF Done:  E(UwB97XD) =  -595.280030676     a.u. after    2 cycles
 SCF Done:  E(UwB97XD) =  -595.280030678     a.u. after    2 cycles
 SCF Done:  E(UwB97XD) =  -595.280030678     a.u. after    2 cycles
 SCF Done:  E(UwB97XD) =  -595.280030677     a.u. after    2 cycles
 SCF Done:  E(UwB97XD) =  -595.280030679     a.u. after    2 cycles
 Optimization completed.
    -- Stationary point found.
 Normal termination of Gaussian 16 at Mon Jul 10 19:27:51 2023.

 ---------------------------------------------------------------------
 #T Geom=AllCheck Guess=TCheck SCRF=Check GenChk UwB97XD/def2SVPP Freq
 ---------------------------------------------------------------------
 Structure from the checkpoint file:  "33.chk"
 -------
 comment
 -------
 Charge =  1 Multiplicity = 2

                         Standard orientation:
 ---------------------------------------------------------------------
 Center     Atomic      Atomic             Coordinates (Angstroms)
 Number     Number       Type             X           Y           Z
 ---------------------------------------------------------------------
      1          6           0       -2.252152    0.213351   -0.014134
      2          6           0       -1.094958   -0.492038   -0.716338
      3          6           0        0.271708   -0.405706   -0.009177
      4          6           0        0.285910   -0.986160    1.406685
      5          6           0        1.397318   -1.012026   -0.883551
      6         16           0        0.751680    1.368736    0.157282
      7          1           0       -2.459270   -0.208881    0.982002
      8          1           0       -3.171178    0.109454   -0.611733
      9          1           0       -2.066726    1.299404    0.105427
     10          1           0       -0.988241   -0.119726   -1.751505
     11          1           0       -1.308257   -1.572439   -0.807044
     12          1           0        0.011142   -2.052215    1.336267
     13          1           0       -0.440332   -0.496303    2.074316
     14          1           0        1.287080   -0.929873    1.865798
     15          1           0        1.169325   -2.090756   -0.964509
     16          1           0        2.394422   -0.917385   -0.423023
     17          1           0        1.414957   -0.595555   -1.904270
     18          1           0        0.483235    1.769969   -1.119148
 ---------------------------------------------------------------------

 SCF Done:  E(UwB97XD) =  -595.280030679     a.u. after    1 cycles

 The electronic state is 2-A.
 Alpha  occ. eigenvalues --  -89.32145 -10.56063 -10.48232 -10.48046 -10.46799
 Alpha  occ. eigenvalues --  -10.44581  -8.37193  -6.33015  -6.32186  -6.31744
 Alpha  occ. eigenvalues --   -1.17224  -1.06095  -1.01090  -0.97131  -0.89682
 Alpha  occ. eigenvalues --   -0.83557  -0.75917  -0.74354  -0.73741  -0.69768
 Alpha  occ. eigenvalues --   -0.69035  -0.65373  -0.64296  -0.63331  -0.62874
 Alpha  occ. eigenvalues --   -0.62342  -0.59832  -0.59199  -0.59138
 Alpha virt. eigenvalues --   -0.13189  -0.09348  -0.01784   0.01544   0.02002
 Alpha virt. eigenvalues --    0.03055   0.03439   0.04399   0.06309   0.07430
 Alpha virt. eigenvalues --    0.08352   0.09112   0.09467   0.10879   0.11451

  Beta  occ. eigenvalues --  -89.31604 -10.56055 -10.48118 -10.48010 -10.46799
  Beta  occ. eigenvalues --  -10.44560  -8.36666  -6.31815  -6.31383  -6.31259
  Beta  occ. eigenvalues --   -1.15504  -1.03904  -1.00753  -0.96919  -0.89472
  Beta  occ. eigenvalues --   -0.83109  -0.75348  -0.73796  -0.72595  -0.68707
  Beta  occ. eigenvalues --   -0.68415  -0.64894  -0.64251  -0.63159  -0.62354
  Beta  occ. eigenvalues --   -0.60224  -0.59121  -0.58917
  Beta virt. eigenvalues --   -0.33843  -0.12580  -0.07887  -0.01680   0.01667
  Beta virt. eigenvalues --    0.02062   0.03129   0.03534   0.04511   0.06438
  Beta virt. eigenvalues --    0.07566   0.08520   0.09411   0.09639   0.11009

 Mulliken charges and spin densities:
               1          2
     1  C   -0.338008   0.016780
     2  C   -0.182875   0.019591
     3  C   -0.502095  -0.021859
     4  C   -0.264857   0.001330
     5  C   -0.259918   0.041254
     6  S    0.380343   0.954230
     7  H    0.168593   0.000011
     8  H    0.186338  -0.000850
     9  H    0.122970  -0.003184
    10  H    0.146943  -0.000673
    11  H    0.174724  -0.000443
    12  H    0.189112  -0.001668
    13  H    0.182154   0.000343
    14  H    0.175817  -0.000074
    15  H    0.202791   0.022806
    16  H    0.185004  -0.001233
    17  H    0.171715  -0.001007
    18  H    0.261249  -0.025354
 Sum of Mulliken charges =   1.00000   1.00000

 Dipole moment (field-independent basis, Debye):
    X=              1.2621    Y=              1.2859    Z=             -1.0244  Tot=              2.0726
  Exact polarizability:  66.892   0.464  72.815  -0.180   0.074  61.761
 Approx polarizability:  67.449   2.602  82.809   0.851   0.564  69.309
                          Isotropic Fermi Contact Couplings
        Atom                 a.u.       MegaHertz       Gauss      10(-4) cm-1
     1  C(13)              0.00326       3.66575       1.30803       1.22276
     2  C(13)              0.01262      14.19022       5.06342       4.73335
     3  C(13)             -0.00852      -9.57902      -3.41803      -3.19522
     4  C(13)             -0.00015      -0.17102      -0.06102      -0.05705
     5  C(13)              0.04931      55.42985      19.77875      18.48941
     6  S(33)              0.17706      60.81472      21.70020      20.28561

                      1                      2                      3
                      A                      A                      A
 Frequencies --     95.0196               173.8727               196.7874
 Red. masses --      2.2710                 2.1939                 1.2731
 Frc consts  --      0.0121                 0.0391                 0.0290
 IR Inten    --      1.4825                 0.2827                 6.7076

                      4                      5                      6
                      A                      A                      A
 Frequencies --    232.6861               252.0359               270.5277
 Red. masses --      1.3317                 1.2936                 1.1184
 Frc consts  --      0.0425                 0.0484                 0.0482
 IR Inten    --      0.8312                 0.3819                10.8704

                      7                      8                      9
                      A                      A                      A
 Frequencies --    295.2214               315.9267               355.3947
 Red. masses --      1.3306                 2.5681                 3.4920
 Frc consts  --      0.0683                 0.1510                 0.2599
 IR Inten    --      6.2230                 0.2851                 1.7938

                     10                     11                     12
                      A                      A                      A
 Frequencies --    391.4621               464.3981               517.3701
 Red. masses --      2.3575                 2.6898                 2.7527
 Frc consts  --      0.2129                 0.3418                 0.4341
 IR Inten    --      2.1752                 0.7364                 1.4764

                     13                     14                     15
                      A                      A                      A
 Frequencies --    741.5886               794.0211               845.0111
 Red. masses --      2.9606                 1.1702                 1.1676
 Frc consts  --      0.9593                 0.4347                 0.4912
 IR Inten    --      0.9580                 4.0989                 8.6314

                     16                     17                     18
                      A                      A                      A
 Frequencies --    919.9849               955.9151              1006.5206
 Red. masses --      2.1559                 1.4017                 1.2855
 Frc consts  --      1.0751                 0.7547                 0.7673
 IR Inten    --      5.3607                 1.1597                10.6938

                     19                     20                     21
                      A                      A                      A
 Frequencies --   1030.2407              1046.8717              1098.4848
 Red. masses --      1.5759                 1.5039                 1.9433
 Frc consts  --      0.9855                 0.9711                 1.3816
 IR Inten    --      2.1760                 9.7382                 1.4065

                     22                     23                     24
                      A                      A                      A
 Frequencies --   1151.2345              1189.8211              1250.7750
 Red. masses --      1.8508                 2.1009                 2.4218
 Frc consts  --      1.4452                 1.7524                 2.2323
 IR Inten    --     13.4869                23.4266                 1.3015

                     25                     26                     27
                      A                      A                      A
 Frequencies --   1312.0073              1370.6921              1395.0887
 Red. masses --      1.2947                 1.3402                 1.1787
 Frc consts  --      1.3131                 1.4835                 1.3516
 IR Inten    --      7.5119                 0.3858                10.2406

                     28                     29                     30
                      A                      A                      A
 Frequencies --   1428.5052              1431.9045              1454.3136
 Red. masses --      1.2021                 1.2722                 1.0483
 Frc consts  --      1.4453                 1.5368                 1.3063
 IR Inten    --     11.4658                11.4004                 8.2398

                     31                     32                     33
                      A                      A                      A
 Frequencies --   1469.4316              1473.2391              1480.8832
 Red. masses --      1.0491                 1.0587                 1.0753
 Frc consts  --      1.3347                 1.3538                 1.3893
 IR Inten    --      4.6417                 1.9309                20.9640

                     34                     35                     36
                      A                      A                      A
 Frequencies --   1487.8850              1496.4681              1505.5000
 Red. masses --      1.0448                 1.0479                 1.0505
 Frc consts  --      1.3628                 1.3826                 1.4029
 IR Inten    --     22.3073                40.9618                 3.8005

                     37                     38                     39
                      A                      A                      A
 Frequencies --   2614.9086              3009.6671              3034.2761
 Red. masses --      1.0386                 1.0517                 1.0365
 Frc consts  --      4.1844                 5.6128                 5.6226
 IR Inten    --     18.4276                15.4728                 2.6557

                     40                     41                     42
                      A                      A                      A
 Frequencies --   3050.2881              3053.1149              3105.3863
 Red. masses --      1.0595                 1.0426                 1.1025
 Frc consts  --      5.8081                 5.7262                 6.2641
 IR Inten    --      5.8534                 0.6266                 2.1058

                     43                     44                     45
                      A                      A                      A
 Frequencies --   3124.4252              3135.0558              3151.1136
 Red. masses --      1.0929                 1.1016                 1.1059
 Frc consts  --      6.2861                 6.3793                 6.4700
 IR Inten    --      9.3319                14.7589                 0.9840

                     46                     47                     48
                      A                      A                      A
 Frequencies --   3157.9396              3162.2127              3166.9153
 Red. masses --      1.1092                 1.1066                 1.1056
 Frc consts  --      6.5175                 6.5197                 6.5334
 IR Inten    --      0.6818                 0.5538                 1.7305

 Optimization completed.
    -- Stationary point found.
 Normal termination of Gaussian 16 at Mon Jul 10 19:29:43 2023.
