 Gaussian 16, Revision B.01,
 Gaussian 16:  ES64L-G16RevB.01 20-Dec-2017

 ----------------------------------------------------------------------
 #T wB97XD/def2svpp opt=(calcall,tight) int(grid=ultrafine) scf=(veryti
 ght,qc)
 ----------------------------------------------------------------------
 --------------
 Comment gs min
 --------------
 Symbolic Z-matrix:
 Charge =  1 Multiplicity = 2

 SCF Done:  E(UwB97XD) =  -692.095254864     a.u. after   13 cycles
 SCF Done:  E(UwB97XD) =  -692.101669732     a.u. after   35 cycles
 SCF Done:  E(UwB97XD) =  -692.088507730     a.u. after   74 cycles
 SCF Done:  E(UwB97XD) =  -692.107853508     a.u. after   17 cycles
 SCF Done:  E(UwB97XD) =  -692.114031324     a.u. after   18 cycles
 SCF Done:  E(UwB97XD) =  -692.115448465     a.u. after   25 cycles
 SCF Done:  E(UwB97XD) =  -692.115777243     a.u. after    9 cycles
 SCF Done:  E(UwB97XD) =  -692.115782734     a.u. after    5 cycles
 SCF Done:  E(UwB97XD) =  -692.115782962     a.u. after    3 cycles
 SCF Done:  E(UwB97XD) =  -692.115782966     a.u. after    2 cycles
 Optimization completed.
    -- Stationary point found.

                         Standard orientation:
 ---------------------------------------------------------------------
 Center     Atomic      Atomic             Coordinates (Angstroms)
 Number     Number       Type             X           Y           Z
 ---------------------------------------------------------------------
      1          6           0        0.364692    0.075429    1.968822
      2          6           0        0.416701    0.077098    0.514669
      3          7           0       -1.788461   -0.328135   -0.092411
      4          8           0       -2.409972    0.012750    0.817949
      5          8           0       -1.787355   -0.768149   -1.155444
      6          7           0        0.554282    1.342566   -0.215720
      7          8           0       -0.435150    1.860775   -0.652852
      8          8           0        1.695370    1.711541   -0.246016
      9          7           0        1.007069   -1.065272   -0.250351
     10          8           0        1.407697   -1.970152    0.429616
     11          8           0        0.991549   -0.946083   -1.446672
     12          1           0       -0.292520    0.873657    2.352272
     13          1           0        1.400276    0.283757    2.328522
     14          1           0        0.096539   -0.922145    2.354988
 ---------------------------------------------------------------------

 The electronic state is 2-A.
 Alpha  occ. eigenvalues --  -19.65177 -19.64906 -19.54059 -19.53566 -19.52024
 Alpha  occ. eigenvalues --  -19.51499 -14.99623 -14.93153 -14.92104 -10.70086
 Alpha  occ. eigenvalues --  -10.54685  -1.68312  -1.59421  -1.57019  -1.55114
 Alpha  occ. eigenvalues --   -1.41932  -1.40080  -1.21741  -1.06357  -1.04593
 Alpha  occ. eigenvalues --   -1.01144  -0.96815  -0.95736  -0.92381  -0.89158
 Alpha  occ. eigenvalues --   -0.88994  -0.87317  -0.86070  -0.83649  -0.82191
 Alpha  occ. eigenvalues --   -0.79854  -0.76245  -0.74315  -0.73615  -0.73125
 Alpha  occ. eigenvalues --   -0.65497  -0.64533  -0.63569  -0.61873  -0.61699
 Alpha  occ. eigenvalues --   -0.60985  -0.58026
 Alpha virt. eigenvalues --   -0.32281  -0.25204  -0.22748  -0.19000  -0.03800
 Alpha virt. eigenvalues --   -0.03234  -0.01285   0.01493   0.03201   0.04436
 Alpha virt. eigenvalues --    0.08085   0.13216   0.14046   0.22796   0.23711

  Beta  occ. eigenvalues --  -19.64653 -19.64404 -19.53832 -19.53464 -19.51778
  Beta  occ. eigenvalues --  -19.51609 -14.99423 -14.93177 -14.92128 -10.69671
  Beta  occ. eigenvalues --  -10.54687  -1.67341  -1.59213  -1.56900  -1.53891
  Beta  occ. eigenvalues --   -1.41595  -1.39929  -1.20642  -1.06088  -1.04248
  Beta  occ. eigenvalues --   -0.98811  -0.95300  -0.95256  -0.91016  -0.88966
  Beta  occ. eigenvalues --   -0.88727  -0.86909  -0.85775  -0.83288  -0.81969
  Beta  occ. eigenvalues --   -0.79191  -0.74957  -0.74123  -0.72502  -0.70769
  Beta  occ. eigenvalues --   -0.63690  -0.63284  -0.63115  -0.61406  -0.61399
  Beta  occ. eigenvalues --   -0.60356
  Beta virt. eigenvalues --   -0.35795  -0.26828  -0.24496  -0.22637  -0.17836
  Beta virt. eigenvalues --   -0.03492  -0.03013  -0.00158   0.01788   0.03738
  Beta virt. eigenvalues --    0.04706   0.08499   0.13394   0.14180   0.23077

 Mulliken charges and spin densities:
               1          2
     1  C   -0.250690  -0.012090
     2  C    0.031729   0.365063
     3  N    0.369239   0.136078
     4  O    0.038677   0.168790
     5  O    0.067227   0.179202
     6  N    0.273727  -0.033210
     7  O   -0.147966   0.035220
     8  O   -0.091111   0.085153
     9  N    0.249705  -0.024472
    10  O   -0.129730   0.101446
    11  O   -0.143388  -0.042048
    12  H    0.226720   0.002575
    13  H    0.273045   0.034748
    14  H    0.232816   0.003545
 Sum of Mulliken charges =   1.00000   1.00000

 Dipole moment (field-independent basis, Debye):
    X=             -2.9296    Y=             -0.2239    Z=              4.5519  Tot=              5.4178
  Exact polarizability: 101.888   5.592  65.006   9.241  -1.664  71.543
 Approx polarizability: 114.616  -1.455  75.000   7.210  -3.451 105.857
                          Isotropic Fermi Contact Couplings
        Atom                 a.u.       MegaHertz       Gauss      10(-4) cm-1
     1  C(13)             -0.00751      -8.44756      -3.01430      -2.81780
     2  C(13)              0.06277      70.56580      25.17963      23.53822
     3  N(14)              0.05947      19.21633       6.85686       6.40988
     4  O(17)              0.08523     -51.66425     -18.43509     -17.23334
     5  O(17)              0.08881     -53.83334     -19.20908     -17.95687
     6  N(14)             -0.01258      -4.06518      -1.45056      -1.35600

                      1                      2                      3
                      A                      A                      A
 Frequencies --     35.9108                53.2304                93.5866
 Red. masses --     14.4441                13.8072                14.9880
 Frc consts  --      0.0110                 0.0231                 0.0773
 IR Inten    --      4.7648                 1.1918                 0.1627

                      4                      5                      6
                      A                      A                      A
 Frequencies --    110.1462               120.4302               140.4865
 Red. masses --     10.0465                12.8139                11.4150
 Frc consts  --      0.0718                 0.1095                 0.1327
 IR Inten    --     13.5822                 2.5677                 6.0746

                      7                      8                      9
                      A                      A                      A
 Frequencies --    190.9392               211.9958               223.6055
 Red. masses --      6.0214                 3.1285                 1.2886
 Frc consts  --      0.1293                 0.0828                 0.0380
 IR Inten    --      5.7313                 6.3282                 5.2860

                     10                     11                     12
                      A                      A                      A
 Frequencies --    238.6702               296.9034               382.7176
 Red. masses --     13.2237                 3.0153                 7.6561
 Frc consts  --      0.4438                 0.1566                 0.6607
 IR Inten    --      1.1439                 0.8275                27.3519

                     13                     14                     15
                      A                      A                      A
 Frequencies --    465.3086               518.4848               528.1122
 Red. masses --      6.7561                 7.2425                13.4425
 Frc consts  --      0.8618                 1.1471                 2.2089
 IR Inten    --     33.2573                14.4907                23.5815

                     16                     17                     18
                      A                      A                      A
 Frequencies --    587.9014               700.5366               752.8743
 Red. masses --     13.0313                 5.3422                 5.0344
 Frc consts  --      2.6537                 1.5447                 1.6813
 IR Inten    --    762.1650                 9.0225                14.6575

                     19                     20                     21
                      A                      A                      A
 Frequencies --    773.2198               884.2508               920.0252
 Red. masses --      6.2305                11.4792                 2.8767
 Frc consts  --      2.1947                 5.2882                 1.4347
 IR Inten    --      1.7979                33.7091                24.2830

                     22                     23                     24
                      A                      A                      A
 Frequencies --    964.0898              1165.6201              1267.6847
 Red. masses --      1.8289                 2.6407                 3.9937
 Frc consts  --      1.0016                 2.1139                 3.7813
 IR Inten    --     81.5995                24.3600               116.1440

                     25                     26                     27
                      A                      A                      A
 Frequencies --   1349.0405              1365.2066              1396.7940
 Red. masses --      1.1732                10.2417                 4.6743
 Frc consts  --      1.2579                11.2466                 5.3732
 IR Inten    --     84.8487               357.2535                81.3763

                     28                     29                     30
                      A                      A                      A
 Frequencies --   1408.3019              1451.2481              1493.5067
 Red. masses --      1.2790                 1.2943                11.9223
 Frc consts  --      1.4945                 1.6061                15.6684
 IR Inten    --     68.3556                37.8405                24.5867

                     31                     32                     33
                      A                      A                      A
 Frequencies --   1769.7922              1772.9329              2147.2244
 Red. masses --     14.6730                14.3919                14.5670
 Frc consts  --     27.0779                26.6534                39.5708
 IR Inten    --    156.4336               159.7903               276.8300

                     34                     35                     36
                      A                      A                      A
 Frequencies --   2967.9719              3103.7543              3174.8844
 Red. masses --      1.0527                 1.0782                 1.1109
 Frc consts  --      5.4637                 6.1194                 6.5977
 IR Inten    --    158.9317                23.0832                27.1277

 Normal termination of Gaussian 16 at Tue Jul 11 00:10:26 2023.
