 Gaussian 16, Revision B.01,
 Gaussian 16:  ES64L-G16RevB.01 20-Dec-2017

 ----------------------------------------------------------------------
 #T wB97XD/def2svpp opt=tight freq int(grid=ultrafine) scf=(verytight,q
 c)
 ----------------------------------------------------------------------
 --------------
 Comment gs min
 --------------
 Symbolic Z-matrix:
 Charge =  0 Multiplicity = 1

 SCF Done:  E(RwB97XD) =  -438.934876633     a.u. after    8 cycles
 SCF Done:  E(RwB97XD) =  -438.941304473     a.u. after    9 cycles
 SCF Done:  E(RwB97XD) =  -438.943462601     a.u. after   11 cycles
 SCF Done:  E(RwB97XD) =  -438.943899168     a.u. after   10 cycles
 SCF Done:  E(RwB97XD) =  -438.943931999     a.u. after   11 cycles
 SCF Done:  E(RwB97XD) =  -438.946408629     a.u. after    9 cycles
 SCF Done:  E(RwB97XD) =  -438.946703885     a.u. after    7 cycles
 SCF Done:  E(RwB97XD) =  -438.946778764     a.u. after    5 cycles
 SCF Done:  E(RwB97XD) =  -438.946813920     a.u. after    5 cycles
 SCF Done:  E(RwB97XD) =  -438.946834062     a.u. after    4 cycles
 SCF Done:  E(RwB97XD) =  -438.949722871     a.u. after    5 cycles
 SCF Done:  E(RwB97XD) =  -438.949730398     a.u. after    4 cycles
 SCF Done:  E(RwB97XD) =  -438.949731653     a.u. after    3 cycles
 SCF Done:  E(RwB97XD) =  -438.949731750     a.u. after    2 cycles
 SCF Done:  E(RwB97XD) =  -438.949731787     a.u. after    2 cycles
 SCF Done:  E(RwB97XD) =  -438.949731783     a.u. after    2 cycles
 SCF Done:  E(RwB97XD) =  -438.949731783     a.u. after    2 cycles
 SCF Done:  E(RwB97XD) =  -438.949731786     a.u. after    2 cycles
 SCF Done:  E(RwB97XD) =  -438.949731783     a.u. after    2 cycles
 Optimization completed on the basis of negligible forces.
    -- Stationary point found.
 Normal termination of Gaussian 16 at Thu Aug  4 16:30:11 2022.

 ---------------------------------------------------------------------
 #T Geom=AllCheck Guess=TCheck SCRF=Check GenChk RwB97XD/def2SVPP Freq
 ---------------------------------------------------------------------
 Structure from the checkpoint file:  "/scratch/user/peterchao1/peterchao1/6097802_1659647585000000600324111/Gau-212031.chk"
 --------------
 Comment gs min
 --------------
 Charge =  0 Multiplicity = 1

                         Standard orientation:
 ---------------------------------------------------------------------
 Center     Atomic      Atomic             Coordinates (Angstroms)
 Number     Number       Type             X           Y           Z
 ---------------------------------------------------------------------
      1          7           0       -0.122212    0.074049    1.434121
      2          6           0       -0.174685   -0.194031   -0.002113
      3          6           0        0.863227   -1.267122   -0.373331
      4          8           0        2.158755   -0.963754    0.044024
      5          6           0       -1.559344   -0.667681   -0.447840
      6          8           0       -2.516093    0.234490    0.054373
      7          6           0        0.187594    1.144682   -0.688049
      8          8           0        1.347109    1.669700   -0.090692
      9          1           0        0.186500   -0.733090    1.972475
     10          1           0       -1.034349    0.385314    1.768322
     11          1           0        0.809083   -1.429330   -1.472850
     12          1           0        0.584769   -2.224795    0.106318
     13          1           0        2.305901   -0.013944   -0.123206
     14          1           0       -1.734103   -1.690534   -0.053509
     15          1           0       -1.595780   -0.720212   -1.555742
     16          1           0       -3.400531   -0.069197   -0.183140
     17          1           0       -0.664423    1.846262   -0.596549
     18          1           0        0.393712    0.992979   -1.761547
     19          1           0        1.185781    1.519637    0.866936
 ---------------------------------------------------------------------

 SCF Done:  E(RwB97XD) =  -438.949731783     a.u. after    1 cycles

 The electronic state is 1-A.
 Alpha  occ. eigenvalues --  -19.27150 -19.24425 -19.23150 -14.42910 -10.35308
 Alpha  occ. eigenvalues --  -10.33821 -10.33521 -10.33144  -1.13590  -1.11952
 Alpha  occ. eigenvalues --   -1.09410  -0.98662  -0.85646  -0.76478  -0.76131
 Alpha  occ. eigenvalues --   -0.67267  -0.64066  -0.59684  -0.59341  -0.58055
 Alpha  occ. eigenvalues --   -0.55675  -0.53505  -0.51927  -0.49493  -0.48739
 Alpha  occ. eigenvalues --   -0.47881  -0.45078  -0.41867  -0.40611  -0.37823
 Alpha  occ. eigenvalues --   -0.34848  -0.34718  -0.32849
 Alpha virt. eigenvalues --    0.11299   0.14333   0.15793   0.16823   0.19761
 Alpha virt. eigenvalues --    0.21047   0.21410   0.21836   0.22517   0.23291
 Alpha virt. eigenvalues --    0.25838   0.27249   0.28736   0.30454   0.31532

 Mulliken charges:
               1
     1  N   -0.514860
     2  C   -0.265135
     3  C    0.100447
     4  O   -0.498584
     5  C    0.059445
     6  O   -0.483343
     7  C    0.084463
     8  O   -0.507828
     9  H    0.236710
    10  H    0.246521
    11  H    0.084242
    12  H    0.090355
    13  H    0.320688
    14  H    0.088739
    15  H    0.091676
    16  H    0.327352
    17  H    0.110115
    18  H    0.100582
    19  H    0.328415
 Sum of Mulliken charges =  -0.00000

 Dipole moment (field-independent basis, Debye):
    X=             -4.3344    Y=             -1.6594    Z=             -0.2174  Tot=              4.6463
  Exact polarizability:  61.429   0.622  57.169   1.278   0.045  55.641
 Approx polarizability:  63.304   0.459  60.616   1.489   0.169  61.263
   1 Symmetry operations used in ECPInt.
 ECPInt:  NShTT=    2485 NPrTT=   10007 LenC2=    2466 LenP2D=    7959.
 LDataN:  DoStor=T MaxTD1= 6 Len=  172
 Calling FoFJK, ICntrl=    100127 FMM=F ISym2X=0 I1Cent= 0 IOpClX= 0 NMat=1 NMatS=1 NMatT=0.
 Full mass-weighted force constant matrix:
 Low frequencies ---   -0.0015   -0.0009   -0.0004    4.6130    8.1143   14.9650
 Low frequencies ---  117.9587  135.6709  172.5992
 Diagonal vibrational polarizability:

                      1                      2                      3
                      A                      A                      A
 Frequencies --    117.9571               135.6340               172.5648
 Red. masses --      3.6038                 3.0715                 3.1882
 Frc consts  --      0.0295                 0.0333                 0.0559
 IR Inten    --      9.6219                 6.6469                 6.1509

                      4                      5                      6
                      A                      A                      A
 Frequencies --    236.9857               256.7963               283.5479
 Red. masses --      3.7585                 1.9562                 1.3951
 Frc consts  --      0.1244                 0.0760                 0.0661
 IR Inten    --     22.2402                41.8807                42.3273

                      7                      8                      9
                      A                      A                      A
 Frequencies --    298.9926               362.8562               387.1400
 Red. masses --      1.5211                 2.4722                 2.4862
 Frc consts  --      0.0801                 0.1918                 0.2195
 IR Inten    --     35.0014                 2.3834                 6.4781

                     10                     11                     12
                      A                      A                      A
 Frequencies --    410.0240               438.7593               509.8333
 Red. masses --      3.4720                 2.7171                 1.9902
 Frc consts  --      0.3439                 0.3082                 0.3048
 IR Inten    --      7.6398                13.2532                36.7467

                     13                     14                     15
                      A                      A                      A
 Frequencies --    570.4754               660.3800               798.1353
 Red. masses --      1.3374                 3.1297                 2.5941
 Frc consts  --      0.2564                 0.8042                 0.9736
 IR Inten    --    167.8756                37.8912                26.0089

                     16                     17                     18
                      A                      A                      A
 Frequencies --    836.2573               882.7977               951.1968
 Red. masses --      1.4314                 1.3274                 1.7126
 Frc consts  --      0.5898                 0.6095                 0.9130
 IR Inten    --     89.1756               172.3069                 8.3555

                     19                     20                     21
                      A                      A                      A
 Frequencies --    977.8727              1006.0097              1071.4899
 Red. masses --      1.7145                 1.5275                 2.1035
 Frc consts  --      0.9659                 0.9108                 1.4229
 IR Inten    --     10.8732                12.8715                11.4849

                     22                     23                     24
                      A                      A                      A
 Frequencies --   1130.6021              1148.2929              1174.0123
 Red. masses --      4.5349                 2.7059                 2.1842
 Frc consts  --      3.4154                 2.1021                 1.7737
 IR Inten    --     24.3395                89.9344               127.0574

                     25                     26                     27
                      A                      A                      A
 Frequencies --   1186.6505              1201.1295              1240.8189
 Red. masses --      3.9022                 1.4642                 1.1854
 Frc consts  --      3.2375                 1.2446                 1.0753
 IR Inten    --     53.4775                 5.0363                45.4112

                     28                     29                     30
                      A                      A                      A
 Frequencies --   1259.3527              1273.7668              1349.2688
 Red. masses --      1.2975                 1.2043                 1.5616
 Frc consts  --      1.2124                 1.1512                 1.6750
 IR Inten    --     24.1758                 2.8333                 0.6228

                     31                     32                     33
                      A                      A                      A
 Frequencies --   1372.7893              1385.7733              1428.0277
 Red. masses --      1.6596                 1.3827                 1.3934
 Frc consts  --      1.8428                 1.5644                 1.6742
 IR Inten    --     14.0997                 9.4650                16.7806

                     34                     35                     36
                      A                      A                      A
 Frequencies --   1473.5362              1480.2210              1500.0728
 Red. masses --      1.2988                 1.5473                 1.2405
 Frc consts  --      1.6616                 1.9975                 1.6447
 IR Inten    --     56.3221                 5.7477               126.3279

                     37                     38                     39
                      A                      A                      A
 Frequencies --   1514.7378              1525.0072              1530.1037
 Red. masses --      1.0940                 1.0949                 1.0951
 Frc consts  --      1.4789                 1.5002                 1.5106
 IR Inten    --     21.9245                 5.0171                 0.4272

                     40                     41                     42
                      A                      A                      A
 Frequencies --   1649.5379              2967.8351              2985.4667
 Red. masses --      1.1084                 1.0684                 1.0586
 Frc consts  --      1.7769                 5.5448                 5.5591
 IR Inten    --     46.1569                44.9034                73.9245

                     43                     44                     45
                      A                      A                      A
 Frequencies --   3029.6525              3034.5158              3058.3054
 Red. masses --      1.0674                 1.1056                 1.0980
 Frc consts  --      5.7723                 5.9980                 6.0509
 IR Inten    --     28.4441                51.6687                64.4274

                     46                     47                     48
                      A                      A                      A
 Frequencies --   3105.3244              3510.5121              3523.8963
 Red. masses --      1.1054                 1.0507                 1.0622
 Frc consts  --      6.2805                 7.6293                 7.7713
 IR Inten    --     31.3699                32.9307                84.4978

                     49                     50                     51
                      A                      A                      A
 Frequencies --   3605.1822              3618.7846              3797.3482
 Red. masses --      1.0959                 1.0659                 1.0668
 Frc consts  --      8.3925                 8.2239                 9.0634
 IR Inten    --     20.1800               192.8904                53.7284

 Optimization completed.
    -- Stationary point found.
 Normal termination of Gaussian 16 at Thu Aug  4 16:31:53 2022.
