 Gaussian 16, Revision B.01,
 Gaussian 16:  ES64L-G16RevB.01 20-Dec-2017

 ----------------------------------------------------------------------
 #T wB97XD/def2svpp opt=tight freq int(grid=ultrafine) scf=(verytight,q
 c) Volume=tight
 ----------------------------------------------------------------------
 -----
 Dimer
 -----
 Symbolic Z-matrix:
 Charge =  0 Multiplicity = 1

 SCF Done:  E(RwB97XD) =  -630.715102563     a.u. after    6 cycles
 SCF Done:  E(RwB97XD) =  -630.721576860     a.u. after    6 cycles
 SCF Done:  E(RwB97XD) =  -630.721918431     a.u. after    6 cycles
 SCF Done:  E(RwB97XD) =  -630.722129564     a.u. after    8 cycles
 SCF Done:  E(RwB97XD) =  -630.722208987     a.u. after    5 cycles
 SCF Done:  E(RwB97XD) =  -630.722269679     a.u. after    4 cycles
 SCF Done:  E(RwB97XD) =  -630.722334889     a.u. after    4 cycles
 SCF Done:  E(RwB97XD) =  -630.722401177     a.u. after    7 cycles
 SCF Done:  E(RwB97XD) =  -630.722386605     a.u. after    3 cycles
 SCF Done:  E(RwB97XD) =  -630.722459771     a.u. after    5 cycles
 SCF Done:  E(RwB97XD) =  -630.722610339     a.u. after    2 cycles
 SCF Done:  E(RwB97XD) =  -630.722610340     a.u. after    2 cycles
 SCF Done:  E(RwB97XD) =  -630.722610339     a.u. after    2 cycles
 SCF Done:  E(RwB97XD) =  -630.722610336     a.u. after    2 cycles
 SCF Done:  E(RwB97XD) =  -630.722610332     a.u. after    2 cycles
 SCF Done:  E(RwB97XD) =  -630.722610329     a.u. after    2 cycles
 SCF Done:  E(RwB97XD) =  -630.722610327     a.u. after    2 cycles
 SCF Done:  E(RwB97XD) =  -630.722610327     a.u. after    2 cycles
 SCF Done:  E(RwB97XD) =  -630.722610327     a.u. after    2 cycles
 Optimization completed.
    -- Stationary point found.
 Normal termination of Gaussian 16 at Sun Feb  5 18:56:33 2023.

 ---------------------------------------------------------------------
 #T Geom=AllCheck Guess=TCheck SCRF=Check GenChk RwB97XD/def2SVPP Freq
 ---------------------------------------------------------------------
 Structure from the checkpoint file:  "16.chk"
 -----
 Dimer
 -----
 Charge =  0 Multiplicity = 1

                         Standard orientation:
 ---------------------------------------------------------------------
 Center     Atomic      Atomic             Coordinates (Angstroms)
 Number     Number       Type             X           Y           Z
 ---------------------------------------------------------------------
      1          6           0        1.327267   -2.460557    0.302946
      2          6           0        1.578665   -1.029538    0.771634
      3          6           0        2.783376   -0.279264    0.154924
      4          6           0        4.092196   -0.930396    0.629250
      5          6           0        2.753745   -0.329688   -1.389044
      6          6           0        1.520923    0.268245   -2.063063
      7          6           0        2.705824    1.176964    0.677265
      8          6           0        3.734973    2.165257    0.132269
      9          1           0        0.475535   -2.895901    0.854193
     10          1           0        2.198302   -3.116831    0.472809
     11          1           0        1.075990   -2.504682   -0.770683
     12          1           0        1.703461   -1.027416    1.870910
     13          1           0        0.665739   -0.438854    0.583177
     14          1           0        4.975794   -0.413219    0.216951
     15          1           0        4.157888   -1.984083    0.307009
     16          1           0        4.169884   -0.908052    1.731383
     17          1           0        2.861734   -1.382721   -1.707114
     18          1           0        3.656399    0.179600   -1.772985
     19          1           0        0.594443   -0.253110   -1.769003
     20          1           0        1.607427    0.192796   -3.160766
     21          1           0        1.390922    1.336141   -1.815460
     22          1           0        2.789571    1.142774    1.780017
     23          1           0        1.694699    1.575165    0.471967
     24          1           0        3.617132    2.325833   -0.953250
     25          1           0        4.770723    1.829937    0.312198
     26          1           0        3.618247    3.146967    0.622668
     27          6           0       -2.920754   -2.312270   -0.663576
     28          6           0       -2.141435   -1.009617   -0.832017
     29          6           0       -2.740551    0.262738   -0.183561
     30          6           0       -4.061621    0.622568   -0.881753
     31          6           0       -3.033596    0.046570    1.317952
     32          6           0       -1.839008   -0.323816    2.194169
     33          6           0       -1.712678    1.400057   -0.403181
     34          6           0       -2.019923    2.750832    0.239674
     35          1           0       -2.419544   -3.127888   -1.212696
     36          1           0       -3.950490   -2.238086   -1.053160
     37          1           0       -2.982494   -2.620967    0.394255
     38          1           0       -2.008646   -0.806741   -1.911522
     39          1           0       -1.123282   -1.164575   -0.434931
     40          1           0       -3.906333    0.786902   -1.963507
     41          1           0       -4.505035    1.541097   -0.460198
     42          1           0       -4.812217   -0.178126   -0.765315
     43          1           0       -3.806796   -0.737278    1.414657
     44          1           0       -3.502934    0.963205    1.719216
     45          1           0       -2.155964   -0.454785    3.243172
     46          1           0       -1.058618    0.456583    2.180700
     47          1           0       -1.367585   -1.268508    1.871774
     48          1           0       -1.591978    1.539633   -1.494016
     49          1           0       -0.724571    1.061697   -0.043672
     50          1           0       -1.246584    3.487890   -0.037538
     51          1           0       -2.032600    2.689616    1.341552
     52          1           0       -2.992634    3.157481   -0.086108
 ---------------------------------------------------------------------

 SCF Done:  E(RwB97XD) =  -630.722610327     a.u. after    1 cycles

 The electronic state is 1-A.
 Alpha  occ. eigenvalues --  -10.30054 -10.30011 -10.28325 -10.28323 -10.28311
 Alpha  occ. eigenvalues --  -10.28260 -10.28254 -10.28200 -10.27909 -10.27854
 Alpha  occ. eigenvalues --  -10.27843 -10.27836 -10.27811 -10.27699 -10.27500
 Alpha  occ. eigenvalues --  -10.27491  -0.92434  -0.92273  -0.84068  -0.83920
 Alpha  occ. eigenvalues --   -0.83262  -0.83095  -0.80014  -0.79765  -0.73976
 Alpha  occ. eigenvalues --   -0.73909  -0.70835  -0.70451  -0.68017  -0.67974
 Alpha  occ. eigenvalues --   -0.60474  -0.60159  -0.56392  -0.56138  -0.55993
 Alpha  occ. eigenvalues --   -0.55042  -0.53693  -0.53136  -0.50592  -0.50569
 Alpha  occ. eigenvalues --   -0.48867  -0.48802  -0.48561  -0.48335  -0.48312
 Alpha  occ. eigenvalues --   -0.47983  -0.47199  -0.47129  -0.45540  -0.45377
 Alpha  occ. eigenvalues --   -0.45257  -0.44780  -0.43251  -0.43157  -0.42607
 Alpha  occ. eigenvalues --   -0.42291  -0.42174  -0.42024  -0.40885  -0.40766
 Alpha  occ. eigenvalues --   -0.39115  -0.38114  -0.38108  -0.37999  -0.37766
 Alpha  occ. eigenvalues --   -0.37407
 Alpha virt. eigenvalues --    0.11404   0.13366   0.13712   0.14684   0.15636
 Alpha virt. eigenvalues --    0.16419   0.17309   0.17503   0.17901   0.18330
 Alpha virt. eigenvalues --    0.18620   0.18875   0.19300   0.20218   0.20712

 Mulliken charges:
               1
     1  C   -0.316795
     2  C   -0.233619
     3  C   -0.216657
     4  C   -0.271239
     5  C   -0.189304
     6  C   -0.344044
     7  C   -0.201770
     8  C   -0.312688
     9  H    0.124854
    10  H    0.122074
    11  H    0.124143
    12  H    0.097061
    13  H    0.128801
    14  H    0.116376
    15  H    0.115541
    16  H    0.109113
    17  H    0.101787
    18  H    0.102110
    19  H    0.128926
    20  H    0.118253
    21  H    0.121933
    22  H    0.095922
    23  H    0.116108
    24  H    0.120265
    25  H    0.117435
    26  H    0.118374
    27  C   -0.307676
    28  C   -0.230143
    29  C   -0.225989
    30  C   -0.272681
    31  C   -0.191142
    32  C   -0.340935
    33  C   -0.229658
    34  C   -0.311836
    35  H    0.118699
    36  H    0.117919
    37  H    0.119149
    38  H    0.105875
    39  H    0.134024
    40  H    0.109550
    41  H    0.116146
    42  H    0.116170
    43  H    0.102370
    44  H    0.102502
    45  H    0.119638
    46  H    0.126384
    47  H    0.131718
    48  H    0.100852
    49  H    0.139896
    50  H    0.118432
    51  H    0.119994
    52  H    0.117784
 Sum of Mulliken charges =  -0.00000

 Dipole moment (field-independent basis, Debye):
    X=             -0.0262    Y=             -0.0106    Z=              0.0314  Tot=              0.0423
  Exact polarizability: 186.088   1.953 172.771   2.606  -0.234 160.336
 Approx polarizability: 181.635  -0.234 180.296  -0.015   0.009 179.376
   1 Symmetry operations used in ECPInt.
 ECPInt:  NShTT=   14196 NPrTT=   56932 LenC2=   13642 LenP2D=   38533.
 LDataN:  DoStor=T MaxTD1= 6 Len=  172
 Calling FoFJK, ICntrl=    100127 FMM=F ISym2X=0 I1Cent= 0 IOpClX= 0 NMat=1 NMatS=1 NMatT=0.
 Full mass-weighted force constant matrix:
 Low frequencies ---   -4.7145   -0.0009   -0.0006    0.0002    4.2590    4.9377
 Low frequencies ---   21.9718   26.0604   45.7679
 Diagonal vibrational polarizability:

                      1                      2                      3
                      A                      A                      A
 Frequencies --     21.8873                25.9951                45.7638
 Red. masses --      3.1305                 3.0865                 2.6939
 Frc consts  --      0.0009                 0.0012                 0.0033
 IR Inten    --      0.0066                 0.0020                 0.0057

                      4                      5                      6
                      A                      A                      A
 Frequencies --     52.2472                67.5722                71.3689
 Red. masses --      3.5541                 2.9566                 3.1189
 Frc consts  --      0.0057                 0.0080                 0.0094
 IR Inten    --      0.0066                 0.0259                 0.0060

                      7                      8                      9
                      A                      A                      A
 Frequencies --     93.2021                94.2372               113.9815
 Red. masses --      1.8065                 2.0182                 2.0720
 Frc consts  --      0.0092                 0.0106                 0.0159
 IR Inten    --      0.0153                 0.0273                 0.0035

                     10                     11                     12
                      A                      A                      A
 Frequencies --    126.5534               144.8624               148.2228
 Red. masses --      1.9126                 1.6791                 1.7627
 Frc consts  --      0.0180                 0.0208                 0.0228
 IR Inten    --      0.0141                 0.0092                 0.0131

                     13                     14                     15
                      A                      A                      A
 Frequencies --    205.1513               209.1558               229.2496
 Red. masses --      2.6862                 2.6189                 1.1476
 Frc consts  --      0.0666                 0.0675                 0.0355
 IR Inten    --      0.0108                 0.0386                 0.0216

                     16                     17                     18
                      A                      A                      A
 Frequencies --    231.6567               235.9382               239.1794
 Red. masses --      1.1283                 1.1272                 1.1215
 Frc consts  --      0.0357                 0.0370                 0.0378
 IR Inten    --      0.0360                 0.0511                 0.0684

                     19                     20                     21
                      A                      A                      A
 Frequencies --    262.7397               270.0067               299.3825
 Red. masses --      1.0711                 1.0550                 1.5226
 Frc consts  --      0.0436                 0.0453                 0.0804
 IR Inten    --      0.0975                 0.0034                 0.0298

                     22                     23                     24
                      A                      A                      A
 Frequencies --    311.0894               314.5309               318.0725
 Red. masses --      2.1750                 1.5269                 2.2717
 Frc consts  --      0.1240                 0.0890                 0.1354
 IR Inten    --      0.0091                 0.0936                 0.2588

                     25                     26                     27
                      A                      A                      A
 Frequencies --    339.2196               354.8834               356.1627
 Red. masses --      1.8609                 1.9725                 1.9753
 Frc consts  --      0.1262                 0.1464                 0.1476
 IR Inten    --      0.0003                 0.0065                 0.0121

                     28                     29                     30
                      A                      A                      A
 Frequencies --    362.6746               396.8058               400.2957
 Red. masses --      1.9825                 2.4790                 2.5348
 Frc consts  --      0.1536                 0.2300                 0.2393
 IR Inten    --      0.0194                 0.0480                 0.0078

                     31                     32                     33
                      A                      A                      A
 Frequencies --    418.8455               419.1504               500.1837
 Red. masses --      3.0640                 3.0795                 2.2480
 Frc consts  --      0.3167                 0.3188                 0.3314
 IR Inten    --      0.0255                 0.3012                 0.2752

                     34                     35                     36
                      A                      A                      A
 Frequencies --    501.6214               524.4425               527.6398
 Red. masses --      2.2336                 2.1050                 2.1190
 Frc consts  --      0.3311                 0.3411                 0.3476
 IR Inten    --      0.1568                 0.8691                 0.7486

                     37                     38                     39
                      A                      A                      A
 Frequencies --    703.2163               703.8762               765.6566
 Red. masses --      2.7085                 2.6967                 1.1935
 Frc consts  --      0.7891                 0.7872                 0.4122
 IR Inten    --      0.3564                 0.0328                 1.4128

                     40                     41                     42
                      A                      A                      A
 Frequencies --    774.2335               801.5875               807.8275
 Red. masses --      1.1743                 1.2630                 1.2223
 Frc consts  --      0.4148                 0.4781                 0.4700
 IR Inten    --      2.4622                 3.8390                 2.5886

                     43                     44                     45
                      A                      A                      A
 Frequencies --    809.3998               814.1107               895.2859
 Red. masses --      1.2454                 1.2078                 1.7555
 Frc consts  --      0.4807                 0.4716                 0.8291
 IR Inten    --      8.6509                 1.3204                 0.4982

                     46                     47                     48
                      A                      A                      A
 Frequencies --    896.8654               912.5851               913.3232
 Red. masses --      1.7471                 1.5888                 1.5848
 Frc consts  --      0.8280                 0.7796                 0.7789
 IR Inten    --      0.1198                 2.3245                 3.4381

                     49                     50                     51
                      A                      A                      A
 Frequencies --    994.4457               995.5860              1024.3339
 Red. masses --      1.7364                 1.7496                 1.2655
 Frc consts  --      1.0117                 1.0217                 0.7823
 IR Inten    --      0.5148                 6.8977                 1.0448

                     52                     53                     54
                      A                      A                      A
 Frequencies --   1025.1561              1027.4696              1028.6671
 Red. masses --      1.2632                 1.4642                 1.4799
 Frc consts  --      0.7821                 0.9107                 0.9226
 IR Inten    --     11.1394                 6.6773                 2.2942

                     55                     56                     57
                      A                      A                      A
 Frequencies --   1051.3597              1051.9764              1053.0323
 Red. masses --      1.5603                 1.6203                 1.5440
 Frc consts  --      1.0161                 1.0564                 1.0087
 IR Inten    --      0.3755                 0.4274                 0.3327

                     58                     59                     60
                      A                      A                      A
 Frequencies --   1054.6459              1069.7725              1071.0886
 Red. masses --      1.4913                 1.8083                 1.8321
 Frc consts  --      0.9773                 1.2193                 1.2384
 IR Inten    --      1.0148                 1.9042                 1.2713

                     61                     62                     63
                      A                      A                      A
 Frequencies --   1093.3876              1094.8253              1125.0187
 Red. masses --      2.5820                 2.6010                 2.1959
 Frc consts  --      1.8187                 1.8369                 1.6375
 IR Inten    --      0.0424                 0.1789                 1.8771

                     64                     65                     66
                      A                      A                      A
 Frequencies --   1125.3932              1129.8268              1131.7989
 Red. masses --      2.2020                 1.4936                 1.4911
 Frc consts  --      1.6432                 1.1233                 1.1254
 IR Inten    --      0.0774                 0.1854                 0.1506

                     67                     68                     69
                      A                      A                      A
 Frequencies --   1220.4797              1221.4601              1232.8447
 Red. masses --      1.9511                 1.9635                 2.1269
 Frc consts  --      1.7124                 1.7260                 1.9047
 IR Inten    --      8.5498                 0.5612                 1.8731

                     70                     71                     72
                      A                      A                      A
 Frequencies --   1234.6569              1285.0708              1286.1019
 Red. masses --      2.1266                 3.5411                 3.5431
 Frc consts  --      1.9099                 3.4455                 3.4529
 IR Inten    --      0.4338                 0.0398                 0.1162

                     73                     74                     75
                      A                      A                      A
 Frequencies --   1301.7056              1303.7253              1319.0619
 Red. masses --      1.1483                 1.1511                 1.1618
 Frc consts  --      1.1464                 1.1528                 1.1910
 IR Inten    --      0.3642                 0.1382                 5.2556

                     76                     77                     78
                      A                      A                      A
 Frequencies --   1319.7130              1348.3345              1350.1029
 Red. masses --      1.1595                 1.2443                 1.2450
 Frc consts  --      1.1898                 1.3328                 1.3370
 IR Inten    --      0.7033                 0.2108                 1.0396

                     79                     80                     81
                      A                      A                      A
 Frequencies --   1379.9143              1382.8833              1394.8440
 Red. masses --      1.2866                 1.2746                 1.5337
 Frc consts  --      1.4435                 1.4362                 1.7581
 IR Inten    --      0.0776                 0.1027                 1.5687

                     82                     83                     84
                      A                      A                      A
 Frequencies --   1396.2591              1407.3687              1408.7282
 Red. masses --      1.5218                 1.4148                 1.4516
 Frc consts  --      1.7479                 1.6510                 1.6973
 IR Inten    --      0.1810                 1.3800                 0.6785

                     85                     86                     87
                      A                      A                      A
 Frequencies --   1422.1950              1422.8933              1425.0932
 Red. masses --      1.2686                 1.2671                 1.3285
 Frc consts  --      1.5119                 1.5114                 1.5896
 IR Inten    --      3.1953                10.9742                10.2540

                     88                     89                     90
                      A                      A                      A
 Frequencies --   1425.4827              1429.1393              1429.3448
 Red. masses --      1.3315                 1.3668                 1.3539
 Frc consts  --      1.5941                 1.6448                 1.6297
 IR Inten    --      9.2315                 1.0281                 0.3769

                     91                     92                     93
                      A                      A                      A
 Frequencies --   1432.9918              1435.4846              1472.7055
 Red. masses --      1.4010                 1.3958                 1.0780
 Frc consts  --      1.6950                 1.6947                 1.3775
 IR Inten    --      0.1829                 3.5263                 0.9995

                     94                     95                     96
                      A                      A                      A
 Frequencies --   1474.8198              1477.4199              1480.8091
 Red. masses --      1.0711                 1.0701                 1.0545
 Frc consts  --      1.3726                 1.3763                 1.3623
 IR Inten    --      0.5573                 6.9599                 5.3011

                     97                     98                     99
                      A                      A                      A
 Frequencies --   1488.7012              1489.7769              1493.4174
 Red. masses --      1.0730                 1.0675                 1.0609
 Frc consts  --      1.4011                 1.3959                 1.3940
 IR Inten    --      5.4231                17.1937                 7.5376

                    100                    101                    102
                      A                      A                      A
 Frequencies --   1493.8007              1494.3028              1495.2784
 Red. masses --      1.0517                 1.0519                 1.0487
 Frc consts  --      1.3826                 1.3839                 1.3814
 IR Inten    --      8.4396                20.4018                11.5085

                    103                    104                    105
                      A                      A                      A
 Frequencies --   1496.5004              1497.4787              1499.0126
 Red. masses --      1.0583                 1.0435                 1.0661
 Frc consts  --      1.3964                 1.3787                 1.4115
 IR Inten    --      3.6349                 3.5435                 0.1359

                    106                    107                    108
                      A                      A                      A
 Frequencies --   1499.1859              1503.2295              1505.5939
 Red. masses --      1.0604                 1.0503                 1.0536
 Frc consts  --      1.4042                 1.3984                 1.4071
 IR Inten    --      1.0174                 3.6162                 7.6518

                    109                    110                    111
                      A                      A                      A
 Frequencies --   1507.0937              1509.9034              1511.2535
 Red. masses --      1.0506                 1.0545                 1.0533
 Frc consts  --      1.4059                 1.4165                 1.4174
 IR Inten    --     11.3129                 3.7774                10.3118

                    112                    113                    114
                      A                      A                      A
 Frequencies --   1512.9016              1515.5415              1519.3610
 Red. masses --      1.0589                 1.0676                 1.0725
 Frc consts  --      1.4279                 1.4447                 1.4587
 IR Inten    --      7.9607                 2.0848                 5.2384

                    115                    116                    117
                      A                      A                      A
 Frequencies --   3026.4338              3027.6009              3028.0949
 Red. masses --      1.0501                 1.0390                 1.0509
 Frc consts  --      5.6667                 5.6115                 5.6774
 IR Inten    --     30.6189                18.6852                13.8441

                    118                    119                    120
                      A                      A                      A
 Frequencies --   3033.3839              3034.3221              3035.1956
 Red. masses --      1.0565                 1.0406                 1.0444
 Frc consts  --      5.7274                 5.6450                 5.6690
 IR Inten    --     26.4829                15.6586                 4.9143

                    121                    122                    123
                      A                      A                      A
 Frequencies --   3036.0863              3036.6202              3036.7025
 Red. masses --      1.0452                 1.0429                 1.0455
 Frc consts  --      5.6764                 5.6658                 5.6802
 IR Inten    --     16.9243                27.2937                 7.2858

                    124                    125                    126
                      A                      A                      A
 Frequencies --   3037.7983              3039.3400              3040.8066
 Red. masses --      1.0630                 1.0497                 1.0537
 Frc consts  --      5.7797                 5.7131                 5.7402
 IR Inten    --     71.2503                77.4218                 5.6471

                    127                    128                    129
                      A                      A                      A
 Frequencies --   3044.0034              3045.1457              3073.5519
 Red. masses --      1.0586                 1.0611                 1.1031
 Frc consts  --      5.7792                 5.7972                 6.1395
 IR Inten    --      9.4864                 5.0482                23.4071

                    130                    131                    132
                      A                      A                      A
 Frequencies --   3082.6344              3082.6784              3089.9414
 Red. masses --      1.1031                 1.1033                 1.0992
 Frc consts  --      6.1758                 6.1774                 6.1835
 IR Inten    --     20.6049                18.7537                21.1281

                    133                    134                    135
                      A                      A                      A
 Frequencies --   3100.4844              3103.9232              3116.4596
 Red. masses --      1.0975                 1.0963                 1.1039
 Frc consts  --      6.2160                 6.2230                 6.3167
 IR Inten    --     20.9016                 1.0842                19.2253

                    136                    137                    138
                      A                      A                      A
 Frequencies --   3116.8546              3119.6151              3121.4880
 Red. masses --      1.1036                 1.1037                 1.1040
 Frc consts  --      6.3170                 6.3285                 6.3378
 IR Inten    --      8.0448                38.7556                28.4517

                    139                    140                    141
                      A                      A                      A
 Frequencies --   3122.3586              3123.6608              3124.1711
 Red. masses --      1.1034                 1.1038                 1.1039
 Frc consts  --      6.3378                 6.3455                 6.3480
 IR Inten    --     12.1672                 7.0110                 3.6431

                    142                    143                    144
                      A                      A                      A
 Frequencies --   3124.7107              3124.9975              3125.3146
 Red. masses --      1.1035                 1.1034                 1.1038
 Frc consts  --      6.3478                 6.3486                 6.3522
 IR Inten    --    109.5934                23.1752                 5.2776

                    145                    146                    147
                      A                      A                      A
 Frequencies --   3130.7718              3131.2205              3132.3083
 Red. masses --      1.1039                 1.1036                 1.1041
 Frc consts  --      6.3753                 6.3749                 6.3825
 IR Inten    --     48.9779                43.7220                53.0854

                    148                    149                    150
                      A                      A                      A
 Frequencies --   3133.1661              3134.1862              3142.1694
 Red. masses --      1.1036                 1.1036                 1.1025
 Frc consts  --      6.3829                 6.3873                 6.4131
 IR Inten    --     10.1585                18.2383                16.9574

                           ! Non-Optimized Parameters !
 Normal termination of Gaussian 16 at Sun Feb  5 19:20:31 2023.
