 Gaussian 16, Revision B.01,
 Gaussian 16:  ES64L-G16RevB.01 20-Dec-2017

 ----------------------------------------------------------------------
 #T wB97XD/def2svpp opt=tight freq int(grid=ultrafine) scf=(verytight,q
 c) Volume=tight
 ----------------------------------------------------------------------
 -----
 Dimer
 -----
 Symbolic Z-matrix:
 Charge =  0 Multiplicity = 1

 SCF Done:  E(RwB97XD) =  -774.180809382     a.u. after    7 cycles
 SCF Done:  E(RwB97XD) =  -774.184782034     a.u. after    7 cycles
 SCF Done:  E(RwB97XD) =  -774.184960323     a.u. after    7 cycles
 SCF Done:  E(RwB97XD) =  -774.185052971     a.u. after    7 cycles
 SCF Done:  E(RwB97XD) =  -774.185429064     a.u. after    5 cycles
 SCF Done:  E(RwB97XD) =  -774.185667858     a.u. after    6 cycles
 SCF Done:  E(RwB97XD) =  -774.185748812     a.u. after    6 cycles
 SCF Done:  E(RwB97XD) =  -774.185790225     a.u. after    3 cycles
 SCF Done:  E(RwB97XD) =  -774.185809035     a.u. after    3 cycles
 SCF Done:  E(RwB97XD) =  -774.185812024     a.u. after    2 cycles
 SCF Done:  E(RwB97XD) =  -774.185817857     a.u. after    2 cycles
 SCF Done:  E(RwB97XD) =  -774.185817885     a.u. after    2 cycles
 SCF Done:  E(RwB97XD) =  -774.185817897     a.u. after    2 cycles
 SCF Done:  E(RwB97XD) =  -774.185817904     a.u. after    2 cycles
 SCF Done:  E(RwB97XD) =  -774.185817907     a.u. after    2 cycles
 SCF Done:  E(RwB97XD) =  -774.185817908     a.u. after    2 cycles
 SCF Done:  E(RwB97XD) =  -774.185817909     a.u. after    2 cycles
 SCF Done:  E(RwB97XD) =  -774.185817909     a.u. after    2 cycles
 SCF Done:  E(RwB97XD) =  -774.185817910     a.u. after    2 cycles
 Optimization completed.
    -- Stationary point found.
 Normal termination of Gaussian 16 at Sun Feb  5 17:03:04 2023.

 ---------------------------------------------------------------------
 #T Geom=AllCheck Guess=TCheck SCRF=Check GenChk RwB97XD/def2SVPP Freq
 ---------------------------------------------------------------------
 Structure from the checkpoint file:  "15.chk"
 -----
 Dimer
 -----
 Charge =  0 Multiplicity = 1

                         Standard orientation:
 ---------------------------------------------------------------------
 Center     Atomic      Atomic             Coordinates (Angstroms)
 Number     Number       Type             X           Y           Z
 ---------------------------------------------------------------------
      1          6           0       -2.560100   -2.272210    0.240128
      2          6           0       -2.333111   -0.905005    0.882582
      3          6           0       -2.742010    0.330368    0.046938
      4          6           0       -4.267189    0.498455    0.079540
      5          6           0       -2.108391    1.593110    0.671314
      6          8           0       -0.698663    1.635605    0.570384
      7          6           0       -2.321530    0.220464   -1.435902
      8          8           0       -0.931264    0.255438   -1.666062
      9          1           0       -1.877215   -2.445416   -0.608908
     10          1           0       -3.596609   -2.399604   -0.118883
     11          1           0       -2.364742   -3.071666    0.974635
     12          1           0       -1.275671   -0.819538    1.174197
     13          1           0       -2.891665   -0.854744    1.835726
     14          1           0       -4.778047   -0.390144   -0.329953
     15          1           0       -4.592704    1.372362   -0.512835
     16          1           0       -4.623770    0.640851    1.114894
     17          1           0       -2.358655    1.643752    1.745058
     18          1           0       -2.540176    2.493113    0.187123
     19          1           0       -0.495876    1.374034   -0.354697
     20          1           0       -2.733407    1.088276   -1.980640
     21          1           0       -2.772800   -0.683280   -1.888186
     22          1           0       -0.468407   -0.569041   -1.385191
     23          6           0        2.560110    2.272209   -0.240136
     24          6           0        2.333116    0.905003   -0.882586
     25          6           0        2.742009   -0.330369   -0.046937
     26          6           0        4.267188   -0.498462   -0.079538
     27          6           0        2.321528   -0.220460    1.435902
     28          8           0        0.931262   -0.255434    1.666063
     29          6           0        2.108386   -1.593111   -0.671310
     30          8           0        0.698658   -1.635602   -0.570380
     31          1           0        3.596619    2.399600    0.118876
     32          1           0        1.877224    2.445421    0.608898
     33          1           0        2.364756    3.071663   -0.974647
     34          1           0        2.891670    0.854736   -1.835729
     35          1           0        1.275675    0.819539   -1.174201
     36          1           0        4.778048    0.390136    0.329953
     37          1           0        4.623769   -0.640862   -1.114891
     38          1           0        4.592699   -1.372369    0.512840
     39          1           0        2.772799    0.683286    1.888183
     40          1           0        2.733405   -1.088270    1.980643
     41          1           0        0.468404    0.569045    1.385192
     42          1           0        2.540169   -2.493114   -0.187116
     43          1           0        2.358650   -1.643757   -1.745054
     44          1           0        0.495872   -1.374026    0.354700
 ---------------------------------------------------------------------

 SCF Done:  E(RwB97XD) =  -774.185817910     a.u. after    1 cycles

 The electronic state is 1-A.
 Alpha  occ. eigenvalues --  -19.25357 -19.25355 -19.25117 -19.25115 -10.33846
 Alpha  occ. eigenvalues --  -10.33846 -10.33813 -10.33812 -10.30834 -10.30834
 Alpha  occ. eigenvalues --  -10.28952 -10.28951 -10.28730 -10.28729 -10.28041
 Alpha  occ. eigenvalues --  -10.28041  -1.13251  -1.11978  -1.10624  -1.09358
 Alpha  occ. eigenvalues --   -0.91711  -0.91624  -0.83260  -0.82857  -0.77037
 Alpha  occ. eigenvalues --   -0.76946  -0.76577  -0.76396  -0.71914  -0.71515
 Alpha  occ. eigenvalues --   -0.65313  -0.64721  -0.62531  -0.61940  -0.57627
 Alpha  occ. eigenvalues --   -0.57612  -0.56534  -0.55291  -0.54352  -0.53741
 Alpha  occ. eigenvalues --   -0.53449  -0.52902  -0.50727  -0.50306  -0.49921
 Alpha  occ. eigenvalues --   -0.49365  -0.48734  -0.48630  -0.47315  -0.47195
 Alpha  occ. eigenvalues --   -0.46469  -0.46356  -0.44585  -0.44232  -0.43445
 Alpha  occ. eigenvalues --   -0.43264  -0.42164  -0.41968  -0.40546  -0.40283
 Alpha  occ. eigenvalues --   -0.39668  -0.38363  -0.36356  -0.35559  -0.34684
 Alpha  occ. eigenvalues --   -0.34154
 Alpha virt. eigenvalues --    0.12798   0.12874   0.14604   0.15350   0.16401
 Alpha virt. eigenvalues --    0.16641   0.17056   0.18091   0.18819   0.19138
 Alpha virt. eigenvalues --    0.20466   0.20724   0.21315   0.21572   0.21853

 Mulliken charges:
               1
     1  C   -0.326305
     2  C   -0.227364
     3  C   -0.318011
     4  C   -0.284013
     5  C    0.092370
     6  O   -0.542992
     7  C    0.056066
     8  O   -0.545132
     9  H    0.130972
    10  H    0.115015
    11  H    0.125412
    12  H    0.126106
    13  H    0.099708
    14  H    0.126082
    15  H    0.118162
    16  H    0.121187
    17  H    0.104112
    18  H    0.093182
    19  H    0.367280
    20  H    0.099317
    21  H    0.109331
    22  H    0.359514
    23  C   -0.326306
    24  C   -0.227363
    25  C   -0.318011
    26  C   -0.284013
    27  C    0.056066
    28  O   -0.545132
    29  C    0.092370
    30  O   -0.542992
    31  H    0.115015
    32  H    0.130972
    33  H    0.125412
    34  H    0.099708
    35  H    0.126107
    36  H    0.126082
    37  H    0.121187
    38  H    0.118162
    39  H    0.109331
    40  H    0.099317
    41  H    0.359514
    42  H    0.093182
    43  H    0.104112
    44  H    0.367280
 Sum of Mulliken charges =   0.00000

 Dipole moment (field-independent basis, Debye):
    X=              0.0000    Y=              0.0000    Z=             -0.0000  Tot=              0.0000
  Exact polarizability: 165.185  -3.476 139.570   0.908  -0.934 126.732
 Approx polarizability: 155.883  -2.691 146.608   0.799  -0.297 145.951
   1 Symmetry operations used in ECPInt.
 ECPInt:  NShTT=   11628 NPrTT=   46652 LenC2=   11258 LenP2D=   32104.
 LDataN:  DoStor=T MaxTD1= 6 Len=  172
 Calling FoFJK, ICntrl=    100127 FMM=F ISym2X=0 I1Cent= 0 IOpClX= 0 NMat=1 NMatS=1 NMatT=0.
 Full mass-weighted force constant matrix:
 Low frequencies ---   -4.9966   -0.0009   -0.0003    0.0009    1.0447   10.3280
 Low frequencies ---   61.8052   65.4817   84.7312
 Diagonal vibrational polarizability:

                      1                      2                      3
                      A                      A                      A
 Frequencies --     61.8052                65.4817                84.7284
 Red. masses --      3.2062                 3.7713                 5.2390
 Frc consts  --      0.0072                 0.0095                 0.0222
 IR Inten    --      0.4428                 3.4853                 0.0000

                      4                      5                      6
                      A                      A                      A
 Frequencies --     89.8808                96.9383               128.7307
 Red. masses --      3.5788                 3.5838                 4.5813
 Frc consts  --      0.0170                 0.0198                 0.0447
 IR Inten    --      5.6854                 0.0000                 0.0000

                      7                      8                      9
                      A                      A                      A
 Frequencies --    139.5756               143.5270               147.9080
 Red. masses --      2.2041                 3.9761                 1.8643
 Frc consts  --      0.0253                 0.0483                 0.0240
 IR Inten    --      0.6134                 0.0000                 0.0000

                     10                     11                     12
                      A                      A                      A
 Frequencies --    190.1137               230.4493               230.4549
 Red. masses --      1.9233                 1.3024                 1.2130
 Frc consts  --      0.0410                 0.0408                 0.0380
 IR Inten    --      1.2780                 0.0007                 2.1995

                     13                     14                     15
                      A                      A                      A
 Frequencies --    239.3119               240.7752               266.4250
 Red. masses --      1.3379                 1.5463                 2.1882
 Frc consts  --      0.0451                 0.0528                 0.0915
 IR Inten    --      0.0000                 4.4805                 0.0000

                     16                     17                     18
                      A                      A                      A
 Frequencies --    278.1236               285.3845               288.7504
 Red. masses --      4.5785                 1.7588                 2.4477
 Frc consts  --      0.2087                 0.0844                 0.1202
 IR Inten    --      9.9302                 7.6005                 0.0000

                     19                     20                     21
                      A                      A                      A
 Frequencies --    307.0629               317.9034               328.7319
 Red. masses --      3.7005                 5.3928                 2.4571
 Frc consts  --      0.2056                 0.3211                 0.1564
 IR Inten    --      0.0000                24.2768                 0.0000

                     22                     23                     24
                      A                      A                      A
 Frequencies --    330.6413               362.4139               364.7173
 Red. masses --      2.4935                 1.9652                 1.9474
 Frc consts  --      0.1606                 0.1521                 0.1526
 IR Inten    --     11.2346                 0.0000                 1.9051

                     25                     26                     27
                      A                      A                      A
 Frequencies --    393.1804               394.6555               429.5673
 Red. masses --      3.4147                 3.2857                 2.3999
 Frc consts  --      0.3110                 0.3015                 0.2609
 IR Inten    --      0.0000                 1.1961                 1.2098

                     28                     29                     30
                      A                      A                      A
 Frequencies --    429.8584               512.0479               514.1663
 Red. masses --      2.5049                 2.8103                 2.9202
 Frc consts  --      0.2727                 0.4341                 0.4549
 IR Inten    --      0.0000                 0.0000                 8.4104

                     31                     32                     33
                      A                      A                      A
 Frequencies --    584.3128               584.7223               620.9226
 Red. masses --      2.2811                 2.9827                 1.3023
 Frc consts  --      0.4589                 0.6008                 0.2958
 IR Inten    --      0.0000                10.0970                 0.0000

                     34                     35                     36
                      A                      A                      A
 Frequencies --    712.0923               739.6976               751.2390
 Red. masses --      1.4040                 2.3528                 1.7004
 Frc consts  --      0.4195                 0.7585                 0.5654
 IR Inten    --    190.9530                 0.0000                88.5361

                     37                     38                     39
                      A                      A                      A
 Frequencies --    795.9249               801.1217               819.8905
 Red. masses --      1.3859                 1.4122                 1.0576
 Frc consts  --      0.5173                 0.5340                 0.4189
 IR Inten    --      0.0000                35.7197               299.3508

                     40                     41                     42
                      A                      A                      A
 Frequencies --    894.6916               903.7643               926.1478
 Red. masses --      1.7958                 1.9336                 1.6671
 Frc consts  --      0.8470                 0.9305                 0.8425
 IR Inten    --      0.0000                19.5780                 0.0000

                     43                     44                     45
                      A                      A                      A
 Frequencies --    929.5746               955.1983               983.3990
 Red. masses --      1.7134                 1.3161                 1.3982
 Frc consts  --      0.8723                 0.7075                 0.7967
 IR Inten    --      9.8507                 0.0000                14.5424

                     46                     47                     48
                      A                      A                      A
 Frequencies --    989.5665              1007.5744              1011.3972
 Red. masses --      1.2972                 1.3463                 1.3630
 Frc consts  --      0.7484                 0.8053                 0.8214
 IR Inten    --      0.0000                 1.2471                 0.0000

                     49                     50                     51
                      A                      A                      A
 Frequencies --   1034.5790              1037.0243              1054.4076
 Red. masses --      1.7160                 1.6997                 1.6310
 Frc consts  --      1.0822                 1.0770                 1.0684
 IR Inten    --     19.8621                 0.0000                13.9336

                     52                     53                     54
                      A                      A                      A
 Frequencies --   1058.9311              1099.0978              1099.8376
 Red. masses --      1.6765                 2.3517                 2.3525
 Frc consts  --      1.1076                 1.6738                 1.6766
 IR Inten    --      0.0000                 0.0000                 4.5993

                     55                     56                     57
                      A                      A                      A
 Frequencies --   1119.9040              1127.2638              1142.0641
 Red. masses --      5.1221                 4.8921                 4.3485
 Frc consts  --      3.7849                 3.6627                 3.3417
 IR Inten    --      0.0000                89.5938               299.0395

                     58                     59                     60
                      A                      A                      A
 Frequencies --   1152.3409              1209.9068              1212.2633
 Red. masses --      3.6340                 1.5150                 1.5189
 Frc consts  --      2.8431                 1.3066                 1.3151
 IR Inten    --      0.0000                 0.0000                 7.8861

                     61                     62                     63
                      A                      A                      A
 Frequencies --   1214.5166              1214.7964              1245.2694
 Red. masses --      2.3194                 2.3864                 1.5621
 Frc consts  --      2.0157                 2.0749                 1.4272
 IR Inten    --      0.0000                85.3291                 0.0000

                     64                     65                     66
                      A                      A                      A
 Frequencies --   1249.7321              1284.0977              1289.6368
 Red. masses --      1.7613                 1.5049                 1.3436
 Frc consts  --      1.6208                 1.4620                 1.3166
 IR Inten    --     22.4827                 0.0000                73.9673

                     67                     68                     69
                      A                      A                      A
 Frequencies --   1315.9769              1332.6372              1350.3542
 Red. masses --      1.3230                 1.2110                 1.4348
 Frc consts  --      1.3499                 1.2671                 1.5414
 IR Inten    --     27.6538                 0.0000                 2.6020

                     70                     71                     72
                      A                      A                      A
 Frequencies --   1350.4210              1388.0774              1388.6385
 Red. masses --      1.5282                 1.2663                 1.3417
 Frc consts  --      1.6420                 1.4376                 1.5244
 IR Inten    --      0.0000                 5.6236                 0.0000

                     73                     74                     75
                      A                      A                      A
 Frequencies --   1394.5883              1396.2407              1418.5849
 Red. masses --      1.3627                 1.4138                 1.2607
 Frc consts  --      1.5615                 1.6239                 1.4947
 IR Inten    --      0.0000                 2.3965                 0.0000

                     76                     77                     78
                      A                      A                      A
 Frequencies --   1420.8239              1424.1938              1434.5262
 Red. masses --      1.3386                 1.3067                 1.3129
 Frc consts  --      1.5921                 1.5616                 1.5918
 IR Inten    --      0.4387                 0.0000                 8.6205

                     79                     80                     81
                      A                      A                      A
 Frequencies --   1439.8488              1440.2229              1443.7233
 Red. masses --      1.1674                 1.2554                 1.3316
 Frc consts  --      1.4259                 1.5342                 1.6352
 IR Inten    --    118.1413                 0.0001                12.9820

                     82                     83                     84
                      A                      A                      A
 Frequencies --   1451.3187              1482.4201              1486.2884
 Red. masses --      1.2854                 1.0901                 1.0873
 Frc consts  --      1.5951                 1.4115                 1.4151
 IR Inten    --      0.0000                 0.0000                15.2529

                     85                     86                     87
                      A                      A                      A
 Frequencies --   1487.5877              1488.3406              1494.4224
 Red. masses --      1.0718                 1.0832                 1.0543
 Frc consts  --      1.3975                 1.4137                 1.3872
 IR Inten    --      0.0000                25.6759                26.3797

                     88                     89                     90
                      A                      A                      A
 Frequencies --   1496.2660              1498.8222              1500.6335
 Red. masses --      1.0504                 1.0747                 1.0609
 Frc consts  --      1.3856                 1.4225                 1.4076
 IR Inten    --      0.0000                 0.0000                18.9288

                     91                     92                     93
                      A                      A                      A
 Frequencies --   1503.5744              1504.4758              1507.5543
 Red. masses --      1.0634                 1.0718                 1.0613
 Frc consts  --      1.4164                 1.4293                 1.4211
 IR Inten    --      0.0000                71.9689                 6.0087

                     94                     95                     96
                      A                      A                      A
 Frequencies --   1509.1396              1515.7783              1516.0440
 Red. masses --      1.0824                 1.0763                 1.0688
 Frc consts  --      1.4525                 1.4569                 1.4473
 IR Inten    --      0.0000                 0.0001                16.9246

                     97                     98                     99
                      A                      A                      A
 Frequencies --   1545.5278              1554.8778              3002.7686
 Red. masses --      1.1257                 1.1420                 1.0681
 Frc consts  --      1.5843                 1.6267                 5.6740
 IR Inten    --      0.0000               377.1670               149.4896

                    100                    101                    102
                      A                      A                      A
 Frequencies --   3003.1932              3027.6099              3027.6437
 Red. masses --      1.0682                 1.0413                 1.0413
 Frc consts  --      5.6761                 5.6236                 5.6241
 IR Inten    --      0.0000                 0.0000                23.6671

                    103                    104                    105
                      A                      A                      A
 Frequencies --   3032.1824              3032.6535              3037.3357
 Red. masses --      1.0566                 1.0551                 1.0414
 Frc consts  --      5.7236                 5.7174                 5.6603
 IR Inten    --    119.4007                 0.0000                87.2240

                    106                    107                    108
                      A                      A                      A
 Frequencies --   3037.7613              3045.3681              3045.6466
 Red. masses --      1.0437                 1.0744                 1.0739
 Frc consts  --      5.6746                 5.8709                 5.8693
 IR Inten    --      0.0000                45.8676                 0.0000

                    109                    110                    111
                      A                      A                      A
 Frequencies --   3092.4418              3092.5796              3096.0975
 Red. masses --      1.1067                 1.1066                 1.1012
 Frc consts  --      6.2358                 6.2355                 6.2193
 IR Inten    --      0.0000                56.5383                 0.0000

                    112                    113                    114
                      A                      A                      A
 Frequencies --   3096.2450              3117.8281              3117.9175
 Red. masses --      1.1014                 1.1043                 1.1043
 Frc consts  --      6.2210                 6.3248                 6.3249
 IR Inten    --     57.8059                 0.0000                55.2713

                    115                    116                    117
                      A                      A                      A
 Frequencies --   3121.9444              3122.0453              3127.4774
 Red. masses --      1.1037                 1.1037                 1.1035
 Frc consts  --      6.3382                 6.3383                 6.3595
 IR Inten    --      0.0000                29.0437                 0.0049

                    118                    119                    120
                      A                      A                      A
 Frequencies --   3127.4845              3132.7266              3132.7290
 Red. masses --      1.1035                 1.1033                 1.1033
 Frc consts  --      6.3595                 6.3794                 6.3796
 IR Inten    --     35.0470                 0.0035                35.1210

                    121                    122                    123
                      A                      A                      A
 Frequencies --   3153.2290              3153.3400              3398.3129
 Red. masses --      1.0926                 1.0926                 1.0707
 Frc consts  --      6.4006                 6.4009                 7.2850
 IR Inten    --      0.0001                18.6989                 0.0000

                    124                    125                    126
                      A                      A                      A
 Frequencies --   3450.9890              3498.5180              3511.1802
 Red. masses --      1.0691                 1.0657                 1.0649
 Frc consts  --      7.5015                 7.6851                 7.7347
 IR Inten    --   1249.3901               522.3407                 0.0000

 Optimization completed.
    -- Stationary point found.
 Normal termination of Gaussian 16 at Sun Feb  5 17:21:36 2023.
