 Gaussian 16, Revision B.01,
 Gaussian 16:  ES64L-G16RevB.01 20-Dec-2017

 ----------------------------------------------------------------------
 #T wB97XD/def2svpp opt=tight freq int(grid=ultrafine) scf=(verytight,q
 c)
 ----------------------------------------------------------------------
 -------
 comment
 -------
 Symbolic Z-matrix:
 Charge =  1 Multiplicity = 2

 SCF Done:  E(UwB97XD) =  -236.422892267     a.u. after    9 cycles
 SCF Done:  E(UwB97XD) =  -236.443538039     a.u. after    8 cycles
 SCF Done:  E(UwB97XD) =  -236.455103354     a.u. after   11 cycles
 SCF Done:  E(UwB97XD) =  -236.459186721     a.u. after    7 cycles
 SCF Done:  E(UwB97XD) =  -236.462820689     a.u. after   11 cycles
 SCF Done:  E(UwB97XD) =  -236.463492133     a.u. after    5 cycles
 SCF Done:  E(UwB97XD) =  -236.463567726     a.u. after    4 cycles
 SCF Done:  E(UwB97XD) =  -236.463573579     a.u. after    3 cycles
 SCF Done:  E(UwB97XD) =  -236.463574448     a.u. after    2 cycles
 SCF Done:  E(UwB97XD) =  -236.463574593     a.u. after    2 cycles
 SCF Done:  E(UwB97XD) =  -236.463574621     a.u. after    2 cycles
 SCF Done:  E(UwB97XD) =  -236.463574628     a.u. after    2 cycles
 SCF Done:  E(UwB97XD) =  -236.463574628     a.u. after    2 cycles
 SCF Done:  E(UwB97XD) =  -236.463574624     a.u. after    2 cycles
 SCF Done:  E(UwB97XD) =  -236.463574628     a.u. after    2 cycles
 Optimization completed.
    -- Stationary point found.
 Normal termination of Gaussian 16 at Mon Jul 10 19:28:48 2023.

 ---------------------------------------------------------------------
 #T Geom=AllCheck Guess=TCheck SCRF=Check GenChk UwB97XD/def2SVPP Freq
 ---------------------------------------------------------------------
 Structure from the checkpoint file:  "10.chk"
 -------
 comment
 -------
 Charge =  1 Multiplicity = 2

                         Standard orientation:
 ---------------------------------------------------------------------
 Center     Atomic      Atomic             Coordinates (Angstroms)
 Number     Number       Type             X           Y           Z
 ---------------------------------------------------------------------
      1          6           0       -2.252123   -0.040494    0.000015
      2          6           0       -1.102388    0.884402   -0.000022
      3          6           0        0.668026   -0.100495   -0.000001
      4          6           0        0.572846   -0.878525   -1.275546
      5          6           0        1.601292    1.071899   -0.000046
      6          6           0        0.572862   -0.878441    1.275597
      7          1           0       -3.146377    0.625073    0.000000
      8          1           0       -2.325289   -0.657686    0.908324
      9          1           0       -2.325302   -0.657743   -0.908254
     10          1           0       -0.904261    1.443994    0.923488
     11          1           0       -0.904273    1.443934   -0.923570
     12          1           0        0.448605   -0.239011   -2.163994
     13          1           0       -0.202038   -1.659208   -1.250415
     14          1           0        1.549014   -1.396161   -1.391112
     15          1           0        1.511173    1.694699   -0.903802
     16          1           0        2.628834    0.651342   -0.000037
     17          1           0        1.511182    1.694760    0.903670
     18          1           0       -0.202025   -1.659122    1.250529
     19          1           0        0.448637   -0.238868    2.164004
     20          1           0        1.549030   -1.396073    1.391182
 ---------------------------------------------------------------------

 SCF Done:  E(UwB97XD) =  -236.463574628     a.u. after    1 cycles

 The electronic state is 2-A.
 Alpha  occ. eigenvalues --  -10.57036 -10.54962 -10.47458 -10.47394 -10.47392
 Alpha  occ. eigenvalues --  -10.47250  -1.12839  -1.05564  -0.97784  -0.97693
 Alpha  occ. eigenvalues --   -0.90567  -0.81713  -0.75697  -0.74999  -0.72725
 Alpha  occ. eigenvalues --   -0.72094  -0.69041  -0.66882  -0.65486  -0.65100
 Alpha  occ. eigenvalues --   -0.64153  -0.63200  -0.62678  -0.62562  -0.53859
 Alpha virt. eigenvalues --   -0.12454  -0.04117  -0.00083   0.00224   0.01792
 Alpha virt. eigenvalues --    0.03022   0.03790   0.03961   0.05604   0.05874
 Alpha virt. eigenvalues --    0.07317   0.07672   0.08688   0.10333   0.10622

  Beta  occ. eigenvalues --  -10.56680 -10.54385 -10.47456 -10.47380 -10.47378
  Beta  occ. eigenvalues --  -10.47242  -1.11398  -1.04312  -0.97473  -0.97381
  Beta  occ. eigenvalues --   -0.88805  -0.80390  -0.75045  -0.73014  -0.72199
  Beta  occ. eigenvalues --   -0.71827  -0.68168  -0.65856  -0.64668  -0.64237
  Beta  occ. eigenvalues --   -0.64001  -0.62943  -0.62395  -0.62291
  Beta virt. eigenvalues --   -0.29184  -0.06876  -0.03697   0.00096   0.00402
  Beta virt. eigenvalues --    0.02040   0.03088   0.03986   0.04316   0.05825
  Beta virt. eigenvalues --    0.06104   0.07579   0.08076   0.08776   0.10532

 Mulliken charges and spin densities:
               1          2
     1  C   -0.356828  -0.012889
     2  C   -0.197771   0.487969
     3  C   -0.355908   0.358351
     4  C   -0.279694  -0.013697
     5  C   -0.266916  -0.014215
     6  C   -0.279694  -0.013697
     7  H    0.223276   0.050929
     8  H    0.192709   0.006741
     9  H    0.192709   0.006741
    10  H    0.209148  -0.005923
    11  H    0.209148  -0.005923
    12  H    0.179489   0.005284
    13  H    0.182925   0.002341
    14  H    0.209513   0.045130
    15  H    0.179117   0.003787
    16  H    0.207734   0.042529
    17  H    0.179117   0.003787
    18  H    0.182925   0.002341
    19  H    0.179489   0.005283
    20  H    0.209513   0.045130
 Sum of Mulliken charges =   1.00000   1.00000

 Dipole moment (field-independent basis, Debye):
    X=             -0.3701    Y=              0.5289    Z=             -0.0000  Tot=              0.6456
  Exact polarizability:  84.479  -3.443  62.276  -0.000  -0.000  61.034
 Approx polarizability:  78.646  -3.140  65.762   0.000  -0.000  64.414
                          Isotropic Fermi Contact Couplings
        Atom                 a.u.       MegaHertz       Gauss      10(-4) cm-1
     1  C(13)             -0.01533     -17.23694      -6.15057      -5.74962
     2  C(13)              0.09507     106.87141      38.13438      35.64846
     3  C(13)              0.03143      35.32996      12.60661      11.78481
     4  C(13)             -0.00290      -3.26444      -1.16483      -1.08890
     5  C(13)             -0.00428      -4.81372      -1.71766      -1.60569
     6  C(13)             -0.00290      -3.26445      -1.16484      -1.08890

                      1                      2                      3
                      A                      A                      A
 Frequencies --     37.3429               192.5057               220.3524
 Red. masses --      1.7596                 1.0238                 2.2124
 Frc consts  --      0.0014                 0.0224                 0.0633
 IR Inten    --      0.2565                 0.3662                 0.3807

                      4                      5                      6
                      A                      A                      A
 Frequencies --    244.1267               245.2882               257.6801
 Red. masses --      1.3183                 2.6697                 1.6272
 Frc consts  --      0.0463                 0.0946                 0.0637
 IR Inten    --      1.7704                 0.4275                 0.0946

                      7                      8                      9
                      A                      A                      A
 Frequencies --    288.5880               304.4579               336.0864
 Red. masses --      1.4463                 1.1913                 2.5330
 Frc consts  --      0.0710                 0.0651                 0.1686
 IR Inten    --      0.8690                 0.0034                 0.4283

                     10                     11                     12
                      A                      A                      A
 Frequencies --    415.0398               417.0473               466.8826
 Red. masses --      2.2455                 2.2965                 1.9358
 Frc consts  --      0.2279                 0.2353                 0.2486
 IR Inten    --      0.0561                 0.0227                 3.9247

                     13                     14                     15
                      A                      A                      A
 Frequencies --    701.5443               802.6337               854.8742
 Red. masses --      1.1010                 3.4342                 1.2060
 Frc consts  --      0.3193                 1.3035                 0.5193
 IR Inten    --      1.5910                 6.8528                48.0217

                     16                     17                     18
                      A                      A                      A
 Frequencies --    856.0635               872.1017               880.1397
 Red. masses --      1.0746                 1.2094                 1.2607
 Frc consts  --      0.4640                 0.5420                 0.5754
 IR Inten    --     12.2489                 0.3081                14.9336

                     19                     20                     21
                      A                      A                      A
 Frequencies --    983.0412              1022.8904              1026.3975
 Red. masses --      1.2156                 1.5753                 1.5998
 Frc consts  --      0.6921                 0.9711                 0.9930
 IR Inten    --      0.0019                 0.2175                 0.0002

                     22                     23                     24
                      A                      A                      A
 Frequencies --   1098.4694              1147.8278              1185.7624
 Red. masses --      2.6519                 1.8227                 1.3140
 Frc consts  --      1.8853                 1.4149                 1.0885
 IR Inten    --     43.9467               122.2995                20.3153

                     25                     26                     27
                      A                      A                      A
 Frequencies --   1232.8059              1300.8996              1306.3550
 Red. masses --      1.4119                 2.5418                 2.4133
 Frc consts  --      1.2643                 2.5344                 2.4265
 IR Inten    --      0.5253                24.8955                17.5733

                     28                     29                     30
                      A                      A                      A
 Frequencies --   1367.0247              1379.9204              1387.7142
 Red. masses --      1.1704                 1.1816                 1.2216
 Frc consts  --      1.2887                 1.3257                 1.3860
 IR Inten    --     32.8347                41.9130                62.0490

                     31                     32                     33
                      A                      A                      A
 Frequencies --   1412.1555              1414.9211              1434.9224
 Red. masses --      1.1803                 1.0357                 1.0373
 Frc consts  --      1.3867                 1.2216                 1.2583
 IR Inten    --     13.0356                10.8482                35.3642

                     34                     35                     36
                      A                      A                      A
 Frequencies --   1458.1195              1464.5009              1465.6278
 Red. masses --      1.0544                 1.0432                 1.0939
 Frc consts  --      1.3209                 1.3183                 1.3845
 IR Inten    --     20.8469                 3.8934                11.8160

                     37                     38                     39
                      A                      A                      A
 Frequencies --   1479.4758              1479.9101              1502.8917
 Red. masses --      1.1795                 1.1963                 1.2230
 Frc consts  --      1.5211                 1.5436                 1.6275
 IR Inten    --      0.2479                 0.0301                 1.6514

                     40                     41                     42
                      A                      A                      A
 Frequencies --   1510.8875              2975.1161              3003.1351
 Red. masses --      1.0905                 1.0570                 1.0501
 Frc consts  --      1.4667                 5.5125                 5.5802
 IR Inten    --     22.1975                65.0907                15.6506

                     43                     44                     45
                      A                      A                      A
 Frequencies --   3005.3049              3017.3605              3116.1155
 Red. masses --      1.0496                 1.0501                 1.0811
 Frc consts  --      5.5855                 5.6328                 6.1850
 IR Inten    --     13.5074                18.0505                 4.5610

                     46                     47                     48
                      A                      A                      A
 Frequencies --   3117.4545              3117.9171              3122.1950
 Red. masses --      1.0841                 1.0821                 1.0871
 Frc consts  --      6.2076                 6.1977                 6.2437
 IR Inten    --      4.1276                 6.6001                 5.1171

                     49                     50                     51
                      A                      A                      A
 Frequencies --   3134.8407              3172.7902              3176.4803
 Red. masses --      1.0555                 1.1091                 1.1094
 Frc consts  --      6.1113                 6.5781                 6.5954
 IR Inten    --     14.2858                 0.1550                 0.0673

                     52                     53                     54
                      A                      A                      A
 Frequencies --   3180.4553              3186.8942              3241.3818
 Red. masses --      1.1083                 1.1098                 1.1177
 Frc consts  --      6.6050                 6.6408                 6.9189
 IR Inten    --      0.6304                 0.0039                 0.7360

 Optimization completed.
    -- Stationary point found.
 Normal termination of Gaussian 16 at Mon Jul 10 19:30:55 2023.
