 Gaussian 16, Revision B.01,
 Gaussian 16:  ES64L-G16RevB.01 20-Dec-2017

 ----------------------------------------------------------------------
 #T wB97XD/def2svpp opt=tight freq int(grid=ultrafine) scf=(verytight,q
 c)
 ----------------------------------------------------------------------
 --------------
 Comment gs min
 --------------
 Symbolic Z-matrix:
 Charge =  0 Multiplicity = 1

 SCF Done:  E(RwB97XD) =  -462.191382089     a.u. after    8 cycles
 SCF Done:  E(RwB97XD) =  -462.196333461     a.u. after   11 cycles
 SCF Done:  E(RwB97XD) =  -462.197160784     a.u. after   10 cycles
 SCF Done:  E(RwB97XD) =  -462.197504812     a.u. after    8 cycles
 SCF Done:  E(RwB97XD) =  -462.197686327     a.u. after    7 cycles
 SCF Done:  E(RwB97XD) =  -462.197778217     a.u. after    7 cycles
 SCF Done:  E(RwB97XD) =  -462.197849697     a.u. after    5 cycles
 SCF Done:  E(RwB97XD) =  -462.197855302     a.u. after    3 cycles
 SCF Done:  E(RwB97XD) =  -462.197855319     a.u. after    3 cycles
 SCF Done:  E(RwB97XD) =  -462.197855693     a.u. after    2 cycles
 SCF Done:  E(RwB97XD) =  -462.197855883     a.u. after    2 cycles
 SCF Done:  E(RwB97XD) =  -462.197856099     a.u. after    2 cycles
 SCF Done:  E(RwB97XD) =  -462.197856141     a.u. after    2 cycles
 SCF Done:  E(RwB97XD) =  -462.197856124     a.u. after    2 cycles
 SCF Done:  E(RwB97XD) =  -462.197856105     a.u. after    2 cycles
 SCF Done:  E(RwB97XD) =  -462.197856128     a.u. after    2 cycles
 SCF Done:  E(RwB97XD) =  -462.197856129     a.u. after    2 cycles
 SCF Done:  E(RwB97XD) =  -462.197856129     a.u. after    2 cycles
 Optimization completed.
    -- Stationary point found.

 1\1\GINC-C622\FOpt\RwB97XD\def2SVPP\C6H14O3\PETERCHAO1\04-Aug-2022\0\\
 #T wB97XD/def2svpp opt=tight freq int(grid=ultrafine) scf=(verytight,q
 c)\\Comment gs min\\0,1\C,2.7772695488,0.978572887,1.0678080821\C,2.55
 02884816,0.0611997818,-0.1352597096\C,3.038631204,-1.3979544417,-0.012
 1125098\C,2.5799504917,-2.0415485848,1.3081368376\O,1.1765622425,-2.06
 88622813,1.4817811719\C,2.4805171313,-2.2122588662,-1.2013385912\O,1.0
 809867004,-2.2094988586,-1.2835122463\C,4.577967261,-1.4354088483,-0.0
 676919574\O,5.1334378591,-2.7254952187,0.0227669846\H,2.4459578143,2.0

 Normal termination of Gaussian 16 at Thu Aug  4 16:25:36 2022.

 ---------------------------------------------------------------------
 #T Geom=AllCheck Guess=TCheck SCRF=Check GenChk RwB97XD/def2SVPP Freq
 ---------------------------------------------------------------------
 Structure from the checkpoint file:  "/scratch/user/peterchao1/peterchao1/6097780_1659647558000000684288916/Gau-150130.chk"
 --------------
 Comment gs min
 --------------
 Charge =  0 Multiplicity = 1

                         Standard orientation:
 ---------------------------------------------------------------------
 Center     Atomic      Atomic             Coordinates (Angstroms)
 Number     Number       Type             X           Y           Z
 ---------------------------------------------------------------------
      1          6           0       -1.219316    2.252791   -0.276027
      2          6           0       -0.812933    0.932050   -0.932505
      3          6           0        0.213394    0.057152   -0.181518
      4          6           0       -0.165049   -0.118696    1.299535
      5          8           0       -1.431527   -0.713295    1.506612
      6          6           0        0.279750   -1.328735   -0.862514
      7          8           0       -0.948981   -2.002855   -0.897540
      8          6           0        1.606203    0.711593   -0.257921
      9          8           0        2.626842   -0.012693    0.386097
     10          1           0       -1.902429    2.811473   -0.937660
     11          1           0       -0.354837    2.906875   -0.069991
     12          1           0       -1.751491    2.103967    0.681256
     13          1           0       -0.403967    1.141627   -1.938463
     14          1           0       -1.710728    0.316615   -1.115132
     15          1           0       -0.100292    0.853486    1.831385
     16          1           0        0.552741   -0.803458    1.779645
     17          1           0       -2.119797   -0.110644    1.191983
     18          1           0        1.062794   -1.929554   -0.357838
     19          1           0        0.598221   -1.198656   -1.912193
     20          1           0       -1.311483   -1.987852    0.004243
     21          1           0        1.557448    1.749181    0.130242
     22          1           0        1.903439    0.781258   -1.318364
     23          1           0        2.597417    0.159496    1.335234
 ---------------------------------------------------------------------

 SCF Done:  E(RwB97XD) =  -462.197856129     a.u. after    1 cycles

 The electronic state is 1-A.
 Alpha  occ. eigenvalues --  -19.27564 -19.25969 -19.22891 -10.35131 -10.34612
 Alpha  occ. eigenvalues --  -10.32510 -10.30795 -10.29885 -10.29869  -1.13753
 Alpha  occ. eigenvalues --   -1.12263  -1.09398  -0.91664  -0.83746  -0.78132
 Alpha  occ. eigenvalues --   -0.75819  -0.72403  -0.66158  -0.62915  -0.60906
 Alpha  occ. eigenvalues --   -0.57910  -0.56050  -0.54030  -0.53267  -0.51660
 Alpha  occ. eigenvalues --   -0.50602  -0.50368  -0.48109  -0.45829  -0.44689
 Alpha  occ. eigenvalues --   -0.43684  -0.42774  -0.41607  -0.40636  -0.36342
 Alpha  occ. eigenvalues --   -0.35597  -0.33251
 Alpha virt. eigenvalues --    0.10659   0.11833   0.14957   0.15942   0.18177
 Alpha virt. eigenvalues --    0.18612   0.19228   0.20889   0.21799   0.23174
 Alpha virt. eigenvalues --    0.23542   0.23856   0.24757   0.27133   0.28472

 Mulliken charges:
               1
     1  C   -0.322820
     2  C   -0.220197
     3  C   -0.317608
     4  C    0.013704
     5  O   -0.497673
     6  C    0.103666
     7  O   -0.504397
     8  C    0.047298
     9  O   -0.482643
    10  H    0.133018
    11  H    0.124376
    12  H    0.104854
    13  H    0.109665
    14  H    0.119783
    15  H    0.103480
    16  H    0.106799
    17  H    0.333704
    18  H    0.102896
    19  H    0.091719
    20  H    0.321685
    21  H    0.098282
    22  H    0.107869
    23  H    0.322539
 Sum of Mulliken charges =   0.00000

 Dipole moment (field-independent basis, Debye):
    X=             -0.3387    Y=              3.3271    Z=              1.6707  Tot=              3.7384
  Exact polarizability:  72.720  -2.738  73.046   0.668  -0.336  69.694
 Approx polarizability:  77.777  -0.595  75.144   0.387  -0.477  76.764
   1 Symmetry operations used in ECPInt.
 ECPInt:  NShTT=    3403 NPrTT=   13689 LenC2=    3375 LenP2D=   10751.
 LDataN:  DoStor=T MaxTD1= 6 Len=  172
 Calling FoFJK, ICntrl=    100127 FMM=F ISym2X=0 I1Cent= 0 IOpClX= 0 NMat=1 NMatS=1 NMatT=0.
 Full mass-weighted force constant matrix:
 Low frequencies ---   -4.2785    0.0007    0.0007    0.0009    3.3199    9.3835
 Low frequencies ---   93.3339  123.4932  142.7604
 Diagonal vibrational polarizability:

                      1                      2                      3
                      A                      A                      A
 Frequencies --     93.3334               123.4879               142.7590
 Red. masses --      2.6416                 2.0084                 4.0613
 Frc consts  --      0.0136                 0.0180                 0.0488
 IR Inten    --      7.9937                 0.8371                 2.5766

                      4                      5                      6
                      A                      A                      A
 Frequencies --    171.9398               197.0419               233.9848
 Red. masses --      3.0935                 2.4093                 3.4566
 Frc consts  --      0.0539                 0.0551                 0.1115
 IR Inten    --      2.3396                 1.9691                 2.3721

                      7                      8                      9
                      A                      A                      A
 Frequencies --    257.7796               312.9865               319.0828
 Red. masses --      1.7830                 1.6894                 2.5808
 Frc consts  --      0.0698                 0.0975                 0.1548
 IR Inten    --      1.9952                61.9661                11.6902

                     10                     11                     12
                      A                      A                      A
 Frequencies --    329.7366               338.2694               377.8341
 Red. masses --      1.3829                 1.2949                 2.3099
 Frc consts  --      0.0886                 0.0873                 0.1943
 IR Inten    --     97.3811               108.9787                 9.6713

                     13                     14                     15
                      A                      A                      A
 Frequencies --    388.5123               471.6977               534.9436
 Red. masses --      2.3932                 3.0167                 2.5914
 Frc consts  --      0.2128                 0.3955                 0.4369
 IR Inten    --     43.8113                22.3048                 3.6846

                     16                     17                     18
                      A                      A                      A
 Frequencies --    618.5318               650.1869               745.9672
 Red. masses --      1.9842                 1.6063                 2.3877
 Frc consts  --      0.4473                 0.4001                 0.7828
 IR Inten    --     32.6554                99.1839                 9.9136

                     19                     20                     21
                      A                      A                      A
 Frequencies --    791.6570               903.9140               944.3754
 Red. masses --      1.3262                 1.7133                 1.9371
 Frc consts  --      0.4897                 0.8248                 1.0179
 IR Inten    --      6.6440                11.3343                 1.7403

                     22                     23                     24
                      A                      A                      A
 Frequencies --    966.1736               996.2848              1044.9217
 Red. masses --      1.3708                 1.6296                 1.5269
 Frc consts  --      0.7539                 0.9530                 0.9823
 IR Inten    --     17.2325                 9.6156                 4.2605

                     25                     26                     27
                      A                      A                      A
 Frequencies --   1083.5472              1118.6572              1131.7840
 Red. masses --      2.4609                 4.3686                 2.8392
 Frc consts  --      1.7023                 3.2210                 2.1428
 IR Inten    --      2.4232                44.7224                64.0494

                     28                     29                     30
                      A                      A                      A
 Frequencies --   1151.8679              1162.4370              1188.1101
 Red. masses --      4.2257                 1.8794                 1.5510
 Frc consts  --      3.3034                 1.4962                 1.2899
 IR Inten    --    106.8233                39.6951                30.8969

                     31                     32                     33
                      A                      A                      A
 Frequencies --   1213.7188              1237.5775              1287.2602
 Red. masses --      1.9565                 1.2697                 1.5914
 Frc consts  --      1.6981                 1.1457                 1.5537
 IR Inten    --     65.8759                19.0194                 9.4888

                     34                     35                     36
                      A                      A                      A
 Frequencies --   1309.4668              1343.5488              1383.8609
 Red. masses --      1.3259                 1.5578                 1.2657
 Frc consts  --      1.3395                 1.6568                 1.4281
 IR Inten    --      3.4559                 7.5938                 3.7962

                     37                     38                     39
                      A                      A                      A
 Frequencies --   1388.0585              1409.7679              1414.1812
 Red. masses --      1.5086                 1.2447                 1.2413
 Frc consts  --      1.7126                 1.4575                 1.4627
 IR Inten    --      4.2851                16.2012                15.5981

                     40                     41                     42
                      A                      A                      A
 Frequencies --   1431.8421              1438.1308              1445.1725
 Red. masses --      1.3217                 1.2907                 1.3861
 Frc consts  --      1.5965                 1.5728                 1.7056
 IR Inten    --     36.1613                 2.4510                10.1382

                     43                     44                     45
                      A                      A                      A
 Frequencies --   1480.8307              1492.0044              1500.1099
 Red. masses --      1.2269                 1.0560                 1.0614
 Frc consts  --      1.5852                 1.3850                 1.4073
 IR Inten    --     74.1103                 1.0339                 4.8769

                     46                     47                     48
                      A                      A                      A
 Frequencies --   1502.5375              1506.1858              1514.4216
 Red. masses --      1.0848                 1.0791                 1.0802
 Frc consts  --      1.4429                 1.4424                 1.4597
 IR Inten    --     21.7658                20.9169                 4.9232

                     49                     50                     51
                      A                      A                      A
 Frequencies --   1530.6087              3003.0259              3011.6909
 Red. masses --      1.0793                 1.0702                 1.0666
 Frc consts  --      1.4898                 5.6863                 5.7000
 IR Inten    --      1.8793                35.4504                57.2979

                     52                     53                     54
                      A                      A                      A
 Frequencies --   3015.9281              3031.8815              3041.8553
 Red. masses --      1.0650                 1.0409                 1.0674
 Frc consts  --      5.7074                 5.6376                 5.8189
 IR Inten    --     46.1657                30.9039                15.1568

                     55                     56                     57
                      A                      A                      A
 Frequencies --   3085.3184              3094.7228              3099.3426
 Red. masses --      1.1042                 1.1002                 1.1012
 Frc consts  --      6.1929                 6.2082                 6.2324
 IR Inten    --     25.5340                 3.8410                34.3749

                     58                     59                     60
                      A                      A                      A
 Frequencies --   3111.9005              3118.0037              3132.8801
 Red. masses --      1.0974                 1.1023                 1.1041
 Frc consts  --      6.2614                 6.3142                 6.3848
 IR Inten    --     30.2490                33.3425                21.1063

                     61                     62                     63
                      A                      A                      A
 Frequencies --   3685.0596              3771.4824              3794.9444
 Red. masses --      1.0654                 1.0657                 1.0666
 Frc consts  --      8.5242                 8.9314                 9.0503
 IR Inten    --    122.2439                33.0699                36.7055

 Optimization completed.
    -- Stationary point found.

 1\1\GINC-C622\Freq\RwB97XD\def2SVPP\C6H14O3\PETERCHAO1\04-Aug-2022\0\\
 #T Geom=AllCheck Guess=TCheck SCRF=Check GenChk RwB97XD/def2SVPP Freq\
 \Comment gs min\\0,1\C,2.7772695488,0.978572887,1.0678080821\C,2.55028
 84816,0.0611997818,-0.1352597096\C,3.038631204,-1.3979544417,-0.012112
 5098\C,2.5799504917,-2.0415485848,1.3081368376\O,1.1765622425,-2.06886
 22813,1.4817811719\C,2.4805171313,-2.2122588662,-1.2013385912\O,1.0809
 867004,-2.2094988586,-1.2835122463\C,4.577967261,-1.4354088483,-0.0676
 919574\O,5.1334378591,-2.7254952187,0.0227669846\H,2.4459578143,2.0037

 Normal termination of Gaussian 16 at Thu Aug  4 16:28:27 2022.
