 Gaussian 16, Revision B.01,
 Gaussian 16:  ES64L-G16RevB.01 20-Dec-2017

 ----------------------------------------------------------------------
 #T wB97XD/def2svpp opt=tight freq int(grid=ultrafine) scf=(verytight,q
 c) Volume=tight
 ----------------------------------------------------------------------
 -------
 Monomer
 -------
 Symbolic Z-matrix:
 Charge =  0 Multiplicity = 1

 SCF Done:  E(RwB97XD) =  -2845.97656332     a.u. after    7 cycles
 SCF Done:  E(RwB97XD) =  -2845.97815571     a.u. after    7 cycles
 SCF Done:  E(RwB97XD) =  -2845.97829122     a.u. after    5 cycles
 SCF Done:  E(RwB97XD) =  -2845.97831203     a.u. after    4 cycles
 SCF Done:  E(RwB97XD) =  -2845.97831782     a.u. after    3 cycles
 SCF Done:  E(RwB97XD) =  -2845.97832104     a.u. after    3 cycles
 SCF Done:  E(RwB97XD) =  -2845.97832243     a.u. after    3 cycles
 SCF Done:  E(RwB97XD) =  -2845.97832276     a.u. after    2 cycles
 SCF Done:  E(RwB97XD) =  -2845.97832278     a.u. after    2 cycles
 SCF Done:  E(RwB97XD) =  -2845.97832279     a.u. after    2 cycles
 SCF Done:  E(RwB97XD) =  -2845.97832279     a.u. after    2 cycles
 Optimization completed.
    -- Stationary point found.
 Normal termination of Gaussian 16 at Fri Mar 29 15:39:37 2024.

 ---------------------------------------------------------------------
 #T Geom=AllCheck Guess=TCheck SCRF=Check GenChk RwB97XD/def2SVPP Freq
 ---------------------------------------------------------------------
 Structure from the checkpoint file:  "monomer.chk"
 -------
 Monomer
 -------
 Charge =  0 Multiplicity = 1

                         Standard orientation:
 ---------------------------------------------------------------------
 Center     Atomic      Atomic             Coordinates (Angstroms)
 Number     Number       Type             X           Y           Z
 ---------------------------------------------------------------------
      1          6           0       -0.781609    1.850793   -0.520441
      2          6           0       -0.998435    0.429487    0.007885
      3          6           0       -0.995695    0.427702    1.541554
      4          6           0       -2.370541   -0.068836   -0.505773
      5          8           0       -2.704831   -1.369392   -0.099234
      6          6           0        0.045921   -0.541599   -0.554980
      7         35           0        1.883784   -0.191811   -0.000255
      8          1           0        0.199878    2.242809   -0.205223
      9          1           0       -1.559848    2.534045   -0.136676
     10          1           0       -0.818678    1.877417   -1.624518
     11          1           0       -1.091416   -0.595230    1.947968
     12          1           0       -1.829787    1.039976    1.930463
     13          1           0       -0.056114    0.846459    1.937856
     14          1           0       -2.365949   -0.087626   -1.609127
     15          1           0       -3.145742    0.663273   -0.196408
     16          1           0       -2.907377   -1.364095    0.845280
     17          1           0        0.060743   -0.503267   -1.654590
     18          1           0       -0.177372   -1.570535   -0.241686
 ---------------------------------------------------------------------

 SCF Done:  E(RwB97XD) =  -2845.97832279     a.u. after    1 cycles

 The electronic state is 1-A.
 Alpha  occ. eigenvalues -- -483.04319 -62.62537 -56.43301 -56.42951 -56.42944
 Alpha  occ. eigenvalues --  -19.26087 -10.34742 -10.34188 -10.32341 -10.29347
 Alpha  occ. eigenvalues --  -10.29080  -8.79483  -6.62007  -6.60733  -6.60706
 Alpha  occ. eigenvalues --   -2.72374  -2.72018  -2.71996  -2.70981  -2.70981
 Alpha  occ. eigenvalues --   -1.12527  -0.93937  -0.87261  -0.79050  -0.77682
 Alpha  occ. eigenvalues --   -0.75329  -0.64559  -0.60832  -0.56510  -0.55492
 Alpha  occ. eigenvalues --   -0.53698  -0.52289  -0.47694  -0.47000  -0.46835
 Alpha  occ. eigenvalues --   -0.44471  -0.43969  -0.42721  -0.41384  -0.36441
 Alpha  occ. eigenvalues --   -0.35182  -0.34850
 Alpha virt. eigenvalues --    0.08476   0.12444   0.14223   0.16618   0.17889
 Alpha virt. eigenvalues --    0.19062   0.19754   0.20691   0.22124   0.23443
 Alpha virt. eigenvalues --    0.25057   0.25688   0.26624   0.29122   0.30206

 Mulliken charges:
               1
     1  C   -0.277399
     2  C   -0.269870
     3  C   -0.306584
     4  C    0.059869
     5  O   -0.482415
     6  C   -0.184292
     7  Br  -0.133509
     8  H    0.138833
     9  H    0.118393
    10  H    0.118046
    11  H    0.114371
    12  H    0.117127
    13  H    0.144032
    14  H    0.104946
    15  H    0.099750
    16  H    0.322570
    17  H    0.150216
    18  H    0.165917
 Sum of Mulliken charges =  -0.00000

 Dipole moment (field-independent basis, Debye):
    X=             -1.8959    Y=              1.0208    Z=              0.7257  Tot=              2.2722
  Exact polarizability:  83.404  -0.728  64.891   1.451  -0.588  65.322
 Approx polarizability:  86.750   1.391  72.582   2.754   0.236  73.614
   1 Symmetry operations used in ECPInt.
 ECPInt:  NShTT=    2485 NPrTT=   10882 LenC2=    2448 LenP2D=    8428.
 LDataN:  DoStor=T MaxTD1= 6 Len=  172
 Calling FoFJK, ICntrl=    100127 FMM=F ISym2X=0 I1Cent= 0 IOpClX= 0 NMat=1 NMatS=1 NMatT=0.
 Full mass-weighted force constant matrix:
 Low frequencies ---   -4.9567   -0.0013    0.0041    0.0072    5.7933   10.1153
 Low frequencies ---   87.8850  120.1820  180.3128
 Diagonal vibrational polarizability:

                      1                      2                      3
                      A                      A                      A
 Frequencies --     87.8806               120.1742               180.3111
 Red. masses --      2.9902                 3.1603                 3.6701
 Frc consts  --      0.0136                 0.0269                 0.0703
 IR Inten    --      1.0547                 2.1705                 5.1911

                      4                      5                      6
                      A                      A                      A
 Frequencies --    222.2287               239.3079               269.2054
 Red. masses --      4.2054                 1.0868                 1.0482
 Frc consts  --      0.1224                 0.0367                 0.0448
 IR Inten    --      3.2803                 1.2388                16.2657

                      7                      8                      9
                      A                      A                      A
 Frequencies --    322.4264               351.3958               368.6468
 Red. masses --      2.1210                 1.7665                 1.5314
 Frc consts  --      0.1299                 0.1285                 0.1226
 IR Inten    --      5.7950                66.0890                43.1974

                     10                     11                     12
                      A                      A                      A
 Frequencies --    406.3996               452.5106               542.4482
 Red. masses --      1.9863                 2.3409                 3.6540
 Frc consts  --      0.1933                 0.2824                 0.6335
 IR Inten    --     29.6264                 2.0912                16.4960

                     13                     14                     15
                      A                      A                      A
 Frequencies --    697.0048               781.7817               876.7101
 Red. masses --      4.1423                 3.4910                 1.5026
 Frc consts  --      1.1857                 1.2571                 0.6805
 IR Inten    --     11.1881                 2.6701                 2.1409

                     16                     17                     18
                      A                      A                      A
 Frequencies --    916.3515               935.6761               966.6315
 Red. masses --      1.9431                 1.5869                 1.3852
 Frc consts  --      0.9613                 0.8185                 0.7626
 IR Inten    --     21.0655                 7.5312                 0.7417

                     19                     20                     21
                      A                      A                      A
 Frequencies --   1019.7582              1036.3567              1121.3773
 Red. masses --      1.5359                 1.3342                 1.3571
 Frc consts  --      0.9410                 0.8443                 1.0055
 IR Inten    --      7.8097                 4.2601                 0.8815

                     22                     23                     24
                      A                      A                      A
 Frequencies --   1147.7161              1200.5534              1231.3867
 Red. masses --      3.8500                 1.2252                 1.8333
 Frc consts  --      2.9880                 1.0404                 1.6378
 IR Inten    --    122.3308                14.0503                 6.8421

                     25                     26                     27
                      A                      A                      A
 Frequencies --   1288.4268              1314.9495              1328.4990
 Red. masses --      1.8955                 1.6460                 1.9682
 Frc consts  --      1.8539                 1.6768                 2.0466
 IR Inten    --      1.3900                17.3588                16.3820

                     28                     29                     30
                      A                      A                      A
 Frequencies --   1401.0205              1413.7634              1419.7927
 Red. masses --      1.2842                 1.3458                 1.2325
 Frc consts  --      1.4852                 1.5848                 1.4638
 IR Inten    --      9.4319                23.4871                 9.2236

                     31                     32                     33
                      A                      A                      A
 Frequencies --   1439.6081              1472.2286              1479.1186
 Red. masses --      1.2714                 1.0852                 1.0630
 Frc consts  --      1.5525                 1.3858                 1.3702
 IR Inten    --     30.8576                 6.2738                 0.8082

                     34                     35                     36
                      A                      A                      A
 Frequencies --   1489.5648              1500.9120              1502.7784
 Red. masses --      1.0507                 1.0799                 1.0722
 Frc consts  --      1.3735                 1.4334                 1.4267
 IR Inten    --      3.2846                 0.1466                18.9204

                     37                     38                     39
                      A                      A                      A
 Frequencies --   1515.5009              2998.6188              3026.9987
 Red. masses --      1.0700                 1.0694                 1.0386
 Frc consts  --      1.4479                 5.6653                 5.6070
 IR Inten    --     16.9742                51.5611                26.8312

                     40                     41                     42
                      A                      A                      A
 Frequencies --   3030.6044              3098.6900              3103.0182
 Red. masses --      1.0390                 1.0933                 1.0676
 Frc consts  --      5.6226                 6.1849                 6.0566
 IR Inten    --     15.6908                12.1741                15.9421

                     43                     44                     45
                      A                      A                      A
 Frequencies --   3113.7003              3118.4004              3135.4302
 Red. masses --      1.1049                 1.1041                 1.1042
 Frc consts  --      6.3115                 6.3261                 6.3956
 IR Inten    --     17.8314                28.5785                 7.7725

                     46                     47                     48
                      A                      A                      A
 Frequencies --   3140.2471              3182.6879              3784.4304
 Red. masses --      1.1021                 1.1090                 1.0660
 Frc consts  --      6.4034                 6.6184                 8.9952
 IR Inten    --     10.7067                 1.3582                34.2336

 Optimization completed.
    -- Stationary point found.
 Normal termination of Gaussian 16 at Fri Mar 29 15:41:17 2024.
