 Gaussian 16, Revision B.01,
 Gaussian 16:  ES64L-G16RevB.01 20-Dec-2017

 ----------------------------------------------------------------------
 #T wB97XD/def2svpp opt=tight freq int(grid=ultrafine) scf=(verytight,q
 c) Volume=tight
 ----------------------------------------------------------------------
 -----
 Dimer
 -----
 Symbolic Z-matrix:
 Charge =  0 Multiplicity = 1

 SCF Done:  E(RwB97XD) =  -614.778377768     a.u. after    8 cycles
 SCF Done:  E(RwB97XD) =  -614.781322064     a.u. after    6 cycles
 SCF Done:  E(RwB97XD) =  -614.781478232     a.u. after    7 cycles
 SCF Done:  E(RwB97XD) =  -614.781619335     a.u. after    9 cycles
 SCF Done:  E(RwB97XD) =  -614.781706812     a.u. after    9 cycles
 SCF Done:  E(RwB97XD) =  -614.781775968     a.u. after   11 cycles
 SCF Done:  E(RwB97XD) =  -614.781934733     a.u. after   11 cycles
 SCF Done:  E(RwB97XD) =  -614.782133814     a.u. after   13 cycles
 SCF Done:  E(RwB97XD) =  -614.782180062     a.u. after    7 cycles
 SCF Done:  E(RwB97XD) =  -614.782233036     a.u. after    9 cycles
 SCF Done:  E(RwB97XD) =  -614.782286878     a.u. after    2 cycles
 SCF Done:  E(RwB97XD) =  -614.782286880     a.u. after    2 cycles
 SCF Done:  E(RwB97XD) =  -614.782286880     a.u. after    2 cycles
 SCF Done:  E(RwB97XD) =  -614.782286879     a.u. after    2 cycles
 SCF Done:  E(RwB97XD) =  -614.782286881     a.u. after    2 cycles
 SCF Done:  E(RwB97XD) =  -614.782286881     a.u. after    2 cycles
 SCF Done:  E(RwB97XD) =  -614.782286881     a.u. after    2 cycles
 SCF Done:  E(RwB97XD) =  -614.782286881     a.u. after    2 cycles
 SCF Done:  E(RwB97XD) =  -614.782286881     a.u. after    2 cycles
 Optimization completed.
    -- Stationary point found.

 1\1\GINC-C141\FOpt\RwB97XD\def2SVPP\C8H16O4\PETERCHAO1\01-Apr-2024\0\\
 #T wB97XD/def2svpp opt=tight freq int(grid=ultrafine) scf=(verytight,q
 c) Volume=tight\\Dimer\\0,1\C,-3.9690250561,0.9970467019,-0.872124717\
 C,-3.4004743976,0.1704589422,0.2912999337\C,-4.0298298444,-1.215755619
 4,0.381218455\C,-1.8912556692,0.0914718501,0.1741073666\O,-1.294932414
 ,1.2518278538,0.2722939254\O,-1.2952388129,-0.9613298742,-0.0075892383
 \H,-3.7672681492,0.5019142798,-1.8384902219\H,-3.5286181738,2.00637061
 74,-0.8984082595\H,-5.0622060391,1.0968146258,-0.7641324946\H,-3.59745

 Normal termination of Gaussian 16 at Mon Apr  1 15:37:22 2024.

 ---------------------------------------------------------------------
 #T Geom=AllCheck Guess=TCheck SCRF=Check GenChk RwB97XD/def2SVPP Freq
 ---------------------------------------------------------------------
 Structure from the checkpoint file:  "dimer.chk"
 -----
 Dimer
 -----
 Charge =  0 Multiplicity = 1

                         Standard orientation:
 ---------------------------------------------------------------------
 Center     Atomic      Atomic             Coordinates (Angstroms)
 Number     Number       Type             X           Y           Z
 ---------------------------------------------------------------------
      1          6           0       -3.981346   -1.159604    0.560986
      2          6           0       -3.396532   -0.082888   -0.365690
      3          6           0       -4.022989    1.287729   -0.131754
      4          6           0       -1.888895   -0.040457   -0.214223
      5          8           0       -1.292720   -1.146875   -0.577654
      6          8           0       -1.294063    0.936541    0.219701
      7          1           0       -3.791742   -0.908922    1.619727
      8          1           0       -3.542533   -2.148191    0.352367
      9          1           0       -5.073129   -1.226190    0.418726
     10          1           0       -3.581871   -0.402284   -1.407381
     11          1           0       -3.840317    1.631456    0.900055
     12          1           0       -5.112911    1.238495   -0.295097
     13          1           0       -3.603339    2.044978   -0.813538
     14          1           0       -0.293957   -1.081046   -0.442239
     15          6           0        4.022989   -1.287730    0.131725
     16          6           0        3.396531    0.082881    0.365693
     17          6           0        3.981350    1.159621   -0.560953
     18          6           0        1.888894    0.040453    0.214222
     19          8           0        1.292719    1.146872    0.577650
     20          8           0        1.294061   -0.936545   -0.219703
     21          1           0        3.603336   -2.044996    0.813488
     22          1           0        5.112910   -1.238500    0.295074
     23          1           0        3.840322   -1.631431   -0.900094
     24          1           0        3.581866    0.402250    1.407392
     25          1           0        3.791750    0.908966   -1.619702
     26          1           0        5.073132    1.226203   -0.418687
     27          1           0        3.542536    2.148202   -0.352310
     28          1           0        0.293957    1.081043    0.442234
 ---------------------------------------------------------------------

 SCF Done:  E(RwB97XD) =  -614.782286881     a.u. after    1 cycles

 The electronic state is 1-A.
 Alpha  occ. eigenvalues --  -19.28937 -19.28936 -19.25943 -19.25941 -10.43787
 Alpha  occ. eigenvalues --  -10.43787 -10.31627 -10.31627 -10.29411 -10.29411
 Alpha  occ. eigenvalues --  -10.28646 -10.28645  -1.21120  -1.19829  -1.11642
 Alpha  occ. eigenvalues --   -1.10193  -0.90719  -0.90363  -0.78189  -0.78142
 Alpha  occ. eigenvalues --   -0.76626  -0.74618  -0.67317  -0.66737  -0.61572
 Alpha  occ. eigenvalues --   -0.59693  -0.58593  -0.57067  -0.56133  -0.55988
 Alpha  occ. eigenvalues --   -0.52875  -0.52426  -0.51783  -0.49005  -0.48651
 Alpha  occ. eigenvalues --   -0.48364  -0.47456  -0.47452  -0.44599  -0.44188
 Alpha  occ. eigenvalues --   -0.43340  -0.43303  -0.42789  -0.42728  -0.41464
 Alpha  occ. eigenvalues --   -0.40449  -0.37989  -0.36459
 Alpha virt. eigenvalues --    0.07686   0.08143   0.13917   0.14252   0.18117
 Alpha virt. eigenvalues --    0.18118   0.19153   0.19209   0.19585   0.19772
 Alpha virt. eigenvalues --    0.21751   0.22006   0.23393   0.23773   0.24082

 Mulliken charges:
               1
     1  C   -0.316245
     2  C   -0.242853
     3  C   -0.277290
     4  C    0.272375
     5  O   -0.362799
     6  O   -0.326739
     7  H    0.123066
     8  H    0.145815
     9  H    0.130053
    10  H    0.129984
    11  H    0.126114
    12  H    0.118470
    13  H    0.129310
    14  H    0.350739
    15  C   -0.277290
    16  C   -0.242854
    17  C   -0.316244
    18  C    0.272375
    19  O   -0.362799
    20  O   -0.326739
    21  H    0.129311
    22  H    0.118470
    23  H    0.126113
    24  H    0.129984
    25  H    0.123066
    26  H    0.130052
    27  H    0.145815
    28  H    0.350740
 Sum of Mulliken charges =  -0.00000

 Dipole moment (field-independent basis, Debye):
    X=              0.0000    Y=             -0.0000    Z=              0.0000  Tot=              0.0000
  Exact polarizability: 117.706   2.603  94.815   0.979   2.397  76.629
 Approx polarizability: 102.702   4.470 107.369   2.972   9.271  87.518
   1 Symmetry operations used in ECPInt.
 ECPInt:  NShTT=    5460 NPrTT=   21940 LenC2=    5109 LenP2D=   14572.
 LDataN:  DoStor=T MaxTD1= 6 Len=  172
 Calling FoFJK, ICntrl=    100127 FMM=F ISym2X=0 I1Cent= 0 IOpClX= 0 NMat=1 NMatS=1 NMatT=0.
 Full mass-weighted force constant matrix:
 Low frequencies ---   -5.3636   -3.4450   -0.0010    0.0008    0.0009    2.2777
 Low frequencies ---   18.6862   32.5297   33.4249
 Diagonal vibrational polarizability:

                      1                      2                      3
                      A                      A                      A
 Frequencies --     18.6862                32.5036                33.4249
 Red. masses --      2.5602                 4.5032                 3.9687
 Frc consts  --      0.0005                 0.0028                 0.0026
 IR Inten    --      0.3292                 0.0000                 1.0221

                      4                      5                      6
                      A                      A                      A
 Frequencies --     77.4984                93.3873               110.2768
 Red. masses --     13.9780                 5.5657                 3.5168
 Frc consts  --      0.0495                 0.0286                 0.0252
 IR Inten    --      0.2487                 0.0000                 7.1069

                      7                      8                      9
                      A                      A                      A
 Frequencies --    134.2320               163.5660               224.0961
 Red. masses --      4.8969                 5.6350                 1.0786
 Frc consts  --      0.0520                 0.0888                 0.0319
 IR Inten    --      0.0000                 0.0000                 0.1014

                     10                     11                     12
                      A                      A                      A
 Frequencies --    225.6506               244.5365               250.7721
 Red. masses --      1.0484                 1.2035                 1.1609
 Frc consts  --      0.0315                 0.0424                 0.0430
 IR Inten    --      0.0000                 0.3842                 0.0000

                     13                     14                     15
                      A                      A                      A
 Frequencies --    287.7406               298.1542               343.2968
 Red. masses --      3.5460                 2.2620                 2.8122
 Frc consts  --      0.1730                 0.1185                 0.1953
 IR Inten    --      0.0000                 7.7907                28.9159

                     16                     17                     18
                      A                      A                      A
 Frequencies --    353.6779               373.1833               386.1650
 Red. masses --      3.2145                 2.4269                 2.7311
 Frc consts  --      0.2369                 0.1991                 0.2400
 IR Inten    --      0.0000                 0.0000                31.3090

                     19                     20                     21
                      A                      A                      A
 Frequencies --    524.0861               552.9770               642.5203
 Red. masses --      3.9058                 4.3977                 4.3084
 Frc consts  --      0.6321                 0.7923                 1.0479
 IR Inten    --      0.0000                26.1128                42.7314

                     22                     23                     24
                      A                      A                      A
 Frequencies --    642.5386               770.9645               772.0994
 Red. masses --      4.3097                 3.6625                 4.3114
 Frc consts  --      1.0483                 1.2826                 1.5143
 IR Inten    --      0.1081                 6.0954                 0.0000

                     25                     26                     27
                      A                      A                      A
 Frequencies --    835.1788               848.1856               947.2381
 Red. masses --      3.0284                 3.3444                 1.5904
 Frc consts  --      1.2446                 1.4176                 0.8408
 IR Inten    --      0.0000                19.8822                 0.0000

                     28                     29                     30
                      A                      A                      A
 Frequencies --    948.2142               952.9524               953.5196
 Red. masses --      1.4875                 1.4117                 1.5396
 Frc consts  --      0.7880                 0.7553                 0.8248
 IR Inten    --     14.9213                 0.0000                12.3257

                     31                     32                     33
                      A                      A                      A
 Frequencies --    987.0681               987.1987              1020.0430
 Red. masses --      1.3864                 1.3884                 1.0562
 Frc consts  --      0.7959                 0.7972                 0.6475
 IR Inten    --      0.0000                 3.8845                 0.0000

                     34                     35                     36
                      A                      A                      A
 Frequencies --   1059.9639              1131.1023              1131.2040
 Red. masses --      1.1020                 1.6326                 1.6235
 Frc consts  --      0.7295                 1.2306                 1.2240
 IR Inten    --    206.7756                20.6647                 0.0000

                     37                     38                     39
                      A                      A                      A
 Frequencies --   1165.6246              1166.2283              1208.1170
 Red. masses --      2.1606                 2.1467                 1.8261
 Frc consts  --      1.7296                 1.7203                 1.5703
 IR Inten    --      0.0000                 9.2110                18.3363

                     40                     41                     42
                      A                      A                      A
 Frequencies --   1208.6217              1319.4282              1320.8659
 Red. masses --      1.8131                 1.9690                 1.8308
 Frc consts  --      1.5605                 2.0196                 1.8819
 IR Inten    --      0.0000                 0.0000               185.7234

                     43                     44                     45
                      A                      A                      A
 Frequencies --   1342.6752              1342.8505              1402.2751
 Red. masses --      1.4553                 1.4526                 1.3582
 Frc consts  --      1.5458                 1.5433                 1.5735
 IR Inten    --      0.0002                37.5436               105.8323

                     46                     47                     48
                      A                      A                      A
 Frequencies --   1403.2483              1419.0034              1428.7658
 Red. masses --      1.3783                 1.3334                 1.4880
 Frc consts  --      1.5990                 1.5818                 1.7897
 IR Inten    --      0.0000                75.5063                 0.0000

                     49                     50                     51
                      A                      A                      A
 Frequencies --   1432.1281              1432.7496              1482.2316
 Red. masses --      1.3071                 1.4428                 1.0429
 Frc consts  --      1.5795                 1.7450                 1.3500
 IR Inten    --      6.8436                 0.0000                 0.0000

                     52                     53                     54
                      A                      A                      A
 Frequencies --   1482.2831              1485.0848              1485.1104
 Red. masses --      1.0426                 1.0498                 1.0493
 Frc consts  --      1.3497                 1.3642                 1.3635
 IR Inten    --      0.4352                 0.0000                10.7802

                     55                     56                     57
                      A                      A                      A
 Frequencies --   1492.6750              1496.7479              1496.9243
 Red. masses --      1.2664                 1.0484                 1.0542
 Frc consts  --      1.6624                 1.3838                 1.3918
 IR Inten    --     22.2488                 0.0001                31.9881

                     58                     59                     60
                      A                      A                      A
 Frequencies --   1504.7929              1529.3061              1544.5335
 Red. masses --      1.0717                 1.8471                 1.9214
 Frc consts  --      1.4298                 2.5453                 2.7006
 IR Inten    --      0.0000               241.2607                 0.0000

                     61                     62                     63
                      A                      A                      A
 Frequencies --   1779.4244              1844.7336              2960.6697
 Red. masses --      6.0648                 9.9313                 1.0866
 Frc consts  --     11.3142                19.9124                 5.6115
 IR Inten    --      0.0000               772.1948                 0.0000

                     64                     65                     66
                      A                      A                      A
 Frequencies --   3038.6339              3038.8968              3045.8137
 Red. masses --      1.0381                 1.0380                 1.0380
 Frc consts  --      5.6473                 5.6476                 5.6735
 IR Inten    --     82.8279                 0.0000               117.3430

                     67                     68                     69
                      A                      A                      A
 Frequencies --   3046.2423              3061.5346              3061.6610
 Red. masses --      1.0378                 1.0850                 1.0849
 Frc consts  --      5.6742                 5.9916                 5.9915
 IR Inten    --      0.0000                23.5830                 0.0012

                     70                     71                     72
                      A                      A                      A
 Frequencies --   3093.2635              3130.3180              3130.3284
 Red. masses --      1.0664                 1.1050                 1.1049
 Frc consts  --      6.0120                 6.3793                 6.3792
 IR Inten    --   4315.9829                 0.0021                19.3079

                     73                     74                     75
                      A                      A                      A
 Frequencies --   3139.9700              3140.0792              3148.5681
 Red. masses --      1.1052                 1.1050                 1.1049
 Frc consts  --      6.4201                 6.4193                 6.4538
 IR Inten    --      0.0000                12.4900                 0.0036

                     76                     77                     78
                      A                      A                      A
 Frequencies --   3148.5955              3153.1810              3153.2545
 Red. masses --      1.1049                 1.1052                 1.1051
 Frc consts  --      6.4538                 6.4740                 6.4737
 IR Inten    --     26.4419                 0.0006                11.0060

                           ! Non-Optimized Parameters !

 1\1\GINC-C141\Freq\RwB97XD\def2SVPP\C8H16O4\PETERCHAO1\01-Apr-2024\0\\
 #T Geom=AllCheck Guess=TCheck SCRF=Check GenChk RwB97XD/def2SVPP Freq\
 \Dimer\\0,1\C,-3.9690250561,0.9970467019,-0.872124717\C,-3.4004743976,
 0.1704589422,0.2912999337\C,-4.0298298444,-1.2157556194,0.381218455\C,
 -1.8912556692,0.0914718501,0.1741073666\O,-1.294932414,1.2518278538,0.
 2722939254\O,-1.2952388129,-0.9613298742,-0.0075892383\H,-3.7672681492
 ,0.5019142798,-1.8384902219\H,-3.5286181738,2.0063706174,-0.8984082595
 \H,-5.0622060391,1.0968146258,-0.7641324946\H,-3.5974583463,0.72828607

 Normal termination of Gaussian 16 at Mon Apr  1 15:41:16 2024.
