 Gaussian 16, Revision B.01,
 Gaussian 16:  ES64L-G16RevB.01 20-Dec-2017

 --------------------------------------------------------------
 #T wB97XD//def2svpp Volume=tight Geom=AllCheckpoint Guess=Read
 --------------------------------------------------------------
 Structure from the checkpoint file:  "8.chk"
 -------
 Monomer
 -------
 Charge =  0 Multiplicity = 1

                         Standard orientation:
 ---------------------------------------------------------------------
 Center     Atomic      Atomic             Coordinates (Angstroms)
 Number     Number       Type             X           Y           Z
 ---------------------------------------------------------------------
      1          6           0       -1.210416   -0.236444   -0.021634
      2          6           0        0.090918    0.551299    0.046907
      3          8           0        1.230139   -0.258419   -0.108232
      4          1           0       -2.085382    0.432814    0.050514
      5          1           0       -1.276055   -0.963964    0.808637
      6          1           0       -1.271281   -0.794996   -0.970950
      7          1           0        0.132984    1.128689    0.994566
      8          1           0        0.131017    1.284689   -0.774782
      9          1           0        1.244594   -0.909006    0.606238
 ---------------------------------------------------------------------

 SCF Done:  E(RwB97XD) =  -154.856033891     A.U. after    1 cycles

 The electronic state is 1-A.
 Alpha  occ. eigenvalues --  -19.24303 -10.33491 -10.28486  -1.10736  -0.83597
 Alpha  occ. eigenvalues --   -0.71156  -0.59084  -0.53999  -0.51878  -0.46473
 Alpha  occ. eigenvalues --   -0.45382  -0.40323  -0.35116
 Alpha virt. eigenvalues --    0.13391   0.17439   0.19146   0.20277   0.21765
 Alpha virt. eigenvalues --    0.24038   0.29671   0.31922   0.51603   0.53823
 Alpha virt. eigenvalues --    0.56556   0.59180   0.66818   0.70348   0.74309

 Mulliken charges:
               1
     1  C   -0.369962
     2  C   -0.008956
     3  O   -0.492448
     4  H    0.120485
     5  H    0.108671
     6  H    0.131165
     7  H    0.091223
     8  H    0.109809
     9  H    0.310012
 Sum of Mulliken charges =  -0.00000

 Dipole moment (field-independent basis, Debye):
    X=             -1.1490    Y=             -0.2672    Z=              1.2432  Tot=              1.7138
 Evaluate density.
 Using the total density.
 Monte-Carlo method of calculating molar volume:
 based on  0.001 e/bohr**3 density envelope.
 Number of points per bohr**3 =  100 CutOff= 1.00D-04
 Using the SCF density.
 There are      1453 points.  Will hold      1453 in memory.
 LenV=  1048484229 MDV=  1048576000.
 Box volume = 3073.167 fraction occupied=0.156
 Integrated density= 4.4548647380531804D+01 error= 1.8548647380531804D+01

 Normal termination of Gaussian 16 at Thu Feb  2 12:54:57 2023.
