 Gaussian 16, Revision B.01,
 Gaussian 16:  ES64L-G16RevB.01 20-Dec-2017

 --------------------------------------------------------------
 #T wB97XD//def2svpp Volume=tight Geom=AllCheckpoint Guess=Read
 --------------------------------------------------------------
 Structure from the checkpoint file:  "43.chk"
 -------
 Monomer
 -------
 Charge =  0 Multiplicity = 1

                         Standard orientation:
 ---------------------------------------------------------------------
 Center     Atomic      Atomic             Coordinates (Angstroms)
 Number     Number       Type             X           Y           Z
 ---------------------------------------------------------------------
      1          6           0       -0.000136   -0.000097    1.910590
      2          6           0       -0.000009    0.000004    0.409402
      3          7           0        0.750195   -1.199207   -0.164898
      4          8           0        0.524289   -2.246680    0.381495
      5          8           0        1.473176   -0.994249   -1.101144
      6          7           0       -1.413665   -0.050069   -0.164977
      7          8           0       -1.597492   -0.778319   -1.101528
      8          8           0       -2.207988    0.668934    0.381688
      9          7           0        0.663513    1.249307   -0.164780
     10          8           0        1.683702    1.577185    0.381552
     11          8           0        0.124456    1.773235   -1.100831
     12          1           0       -0.498246   -0.911840    2.270738
     13          1           0       -0.540728    0.887040    2.270954
     14          1           0        1.038401    0.024304    2.271075
 ---------------------------------------------------------------------

 SCF Done:  E(RwB97XD) =  -692.541067914     A.U. after    1 cycles

 The electronic state is 1-A.
 Alpha  occ. eigenvalues --  -19.34556 -19.34549 -19.34548 -19.34403 -19.34403
 Alpha  occ. eigenvalues --  -19.34402 -14.74333 -14.74333 -14.74331 -10.49535
 Alpha  occ. eigenvalues --  -10.36071  -1.41325  -1.39127  -1.39127  -1.22431
 Alpha  occ. eigenvalues --   -1.22431  -1.22343  -1.04400  -0.86939  -0.85079
 Alpha  occ. eigenvalues --   -0.85077  -0.71644  -0.71644  -0.71248  -0.68669
 Alpha  occ. eigenvalues --   -0.67302  -0.67301  -0.65247  -0.65025  -0.65024
 Alpha  occ. eigenvalues --   -0.59071  -0.55892  -0.55891  -0.47273  -0.46023
 Alpha  occ. eigenvalues --   -0.45029  -0.45029  -0.44309  -0.44308  -0.43726
 Alpha  occ. eigenvalues --   -0.43043  -0.43043
 Alpha virt. eigenvalues --   -0.04739  -0.04739  -0.03773   0.12582   0.12585
 Alpha virt. eigenvalues --    0.13470   0.19054   0.19980   0.19980   0.22710
 Alpha virt. eigenvalues --    0.32691   0.32734   0.32734   0.43336   0.43339

 Mulliken charges:
               1
     1  C   -0.252983
     2  C    0.130845
     3  N    0.241560
     4  O   -0.197687
     5  O   -0.187992
     6  N    0.241546
     7  O   -0.187993
     8  O   -0.197669
     9  N    0.241567
    10  O   -0.197671
    11  O   -0.188014
    12  H    0.184822
    13  H    0.184838
    14  H    0.184831
 Sum of Mulliken charges =  -0.00000

 Dipole moment (field-independent basis, Debye):
    X=             -0.0003    Y=             -0.0001    Z=              3.6255  Tot=              3.6255
 Evaluate density.
 Using the total density.
 Monte-Carlo method of calculating molar volume:
 based on  0.001 e/bohr**3 density envelope.
 Number of points per bohr**3 =  100 CutOff= 1.00D-04
 Using the SCF density.
 There are      1733 points.  Will hold      1733 in memory.
 LenV=  1048245139 MDV=  1048576000.
 Box volume = 5209.901 fraction occupied=0.200
 Integrated density= 8.3513145645609782D+01 error=-4.8685435439021774D-01

 Normal termination of Gaussian 16 at Mon Jul 10 23:22:06 2023.
