 Gaussian 16, Revision B.01,
 Gaussian 16:  ES64L-G16RevB.01 20-Dec-2017

 ----------------------------------------------------------------------
 #T wB97XD/def2svpp opt=tight freq int(grid=ultrafine) scf=(verytight,q
 c)
 ----------------------------------------------------------------------
 -----
 dimer
 -----
 Symbolic Z-matrix:
 Charge =  0 Multiplicity = 1

 SCF Done:  E(RwB97XD) =  -2075.83292707     a.u. after    7 cycles
 SCF Done:  E(RwB97XD) =  -2075.83540063     a.u. after    5 cycles
 SCF Done:  E(RwB97XD) =  -2075.83556315     a.u. after    4 cycles
 SCF Done:  E(RwB97XD) =  -2075.83572600     a.u. after    4 cycles
 SCF Done:  E(RwB97XD) =  -2075.83578660     a.u. after    3 cycles
 SCF Done:  E(RwB97XD) =  -2075.83586161     a.u. after    4 cycles
 SCF Done:  E(RwB97XD) =  -2075.83589177     a.u. after    4 cycles
 SCF Done:  E(RwB97XD) =  -2075.83591990     a.u. after    4 cycles
 SCF Done:  E(RwB97XD) =  -2075.83595372     a.u. after    4 cycles
 SCF Done:  E(RwB97XD) =  -2075.83597838     a.u. after    4 cycles
 SCF Done:  E(RwB97XD) =  -2075.83599157     a.u. after    2 cycles
 SCF Done:  E(RwB97XD) =  -2075.83599219     a.u. after    3 cycles
 SCF Done:  E(RwB97XD) =  -2075.83599421     a.u. after    2 cycles
 SCF Done:  E(RwB97XD) =  -2075.83599551     a.u. after    2 cycles
 SCF Done:  E(RwB97XD) =  -2075.83599561     a.u. after    2 cycles
 SCF Done:  E(RwB97XD) =  -2075.83599562     a.u. after    2 cycles
 SCF Done:  E(RwB97XD) =  -2075.83599562     a.u. after    2 cycles
 SCF Done:  E(RwB97XD) =  -2075.83599562     a.u. after    2 cycles
 SCF Done:  E(RwB97XD) =  -2075.83599562     a.u. after    2 cycles
 Optimization completed.
    -- Stationary point found.
 Normal termination of Gaussian 16 at Tue Aug  9 16:17:46 2022.

 ---------------------------------------------------------------------
 #T Geom=AllCheck Guess=TCheck SCRF=Check GenChk RwB97XD/def2SVPP Freq
 ---------------------------------------------------------------------
 Structure from the checkpoint file:  "/scratch/user/peterchao1/peterchao1/6113313_1660079070000000077996759/Gau-158524.chk"
 -----
 dimer
 -----
 Charge =  0 Multiplicity = 1

                         Standard orientation:
 ---------------------------------------------------------------------
 Center     Atomic      Atomic             Coordinates (Angstroms)
 Number     Number       Type             X           Y           Z
 ---------------------------------------------------------------------
      1          6           0       -1.970945    0.930691   -1.270792
      2          6           0       -2.402247    0.221893    0.000046
      3          6           0       -1.970895    0.931035    1.270675
      4         17           0       -4.200336    0.053103    0.000105
      5         17           0       -1.696010   -1.453045    0.000258
      6          1           0       -2.427308    1.934209   -1.300964
      7          1           0       -2.291301    0.366964   -2.160315
      8          1           0       -0.873601    1.038655   -1.277966
      9          1           0       -2.427246    1.934567    1.300586
     10          1           0       -0.873550    1.038988    1.277788
     11          1           0       -2.291230    0.367556    2.160364
     12          6           0        1.970989   -0.930618    1.270870
     13          6           0        2.402252   -0.221895   -0.000023
     14          6           0        1.970875   -0.931126   -1.270594
     15         17           0        1.695993    1.453033   -0.000325
     16         17           0        4.200338   -0.053081   -0.000136
     17          1           0        0.873647   -1.038589    1.278083
     18          1           0        2.291367   -0.366835    2.160351
     19          1           0        2.427360   -1.934131    1.301092
     20          1           0        0.873533   -1.039120   -1.277647
     21          1           0        2.427261   -1.934642   -1.300466
     22          1           0        2.291150   -0.367687   -2.160329
 ---------------------------------------------------------------------

 SCF Done:  E(RwB97XD) =  -2075.83599562     a.u. after    1 cycles

 The electronic state is 1-A.
 Alpha  occ. eigenvalues -- -101.68030-101.68029-101.67294-101.67294 -10.42821
 Alpha  occ. eigenvalues --  -10.42820 -10.30946 -10.30945 -10.30945 -10.30944
 Alpha  occ. eigenvalues --   -9.58802  -9.58801  -9.58125  -9.58125  -7.34171
 Alpha  occ. eigenvalues --   -7.34171  -7.33518  -7.33518  -7.33221  -7.33221
 Alpha  occ. eigenvalues --   -7.33192  -7.33191  -7.32525  -7.32525  -7.32502
 Alpha  occ. eigenvalues --   -7.32502  -1.01033  -1.00918  -0.91486  -0.91419
 Alpha  occ. eigenvalues --   -0.85490  -0.85318  -0.81053  -0.80890  -0.66637
 Alpha  occ. eigenvalues --   -0.66075  -0.57611  -0.57330  -0.56578  -0.56201
 Alpha  occ. eigenvalues --   -0.54836  -0.54594  -0.50740  -0.49554  -0.48551
 Alpha  occ. eigenvalues --   -0.47378  -0.46722  -0.46628  -0.46624  -0.45640
 Alpha  occ. eigenvalues --   -0.41304  -0.40413  -0.39955  -0.39454  -0.38726
 Alpha  occ. eigenvalues --   -0.38304  -0.37938  -0.37607
 Alpha virt. eigenvalues --    0.08221   0.08248   0.09969   0.10390   0.12806
 Alpha virt. eigenvalues --    0.16552   0.17411   0.19380   0.19680   0.19942
 Alpha virt. eigenvalues --    0.21178   0.21534   0.22048   0.22193   0.22628

 Mulliken charges:
               1
     1  C   -0.232629
     2  C   -0.204149
     3  C   -0.232629
     4  Cl  -0.096002
     5  Cl  -0.087609
     6  H    0.139378
     7  H    0.146984
     8  H    0.140146
     9  H    0.139378
    10  H    0.140147
    11  H    0.146984
    12  C   -0.232629
    13  C   -0.204149
    14  C   -0.232629
    15  Cl  -0.087609
    16  Cl  -0.096002
    17  H    0.140147
    18  H    0.146984
    19  H    0.139379
    20  H    0.140146
    21  H    0.139378
    22  H    0.146984
 Sum of Mulliken charges =  -0.00000

 Dipole moment (field-independent basis, Debye):
    X=              0.0000    Y=             -0.0000    Z=              0.0002  Tot=              0.0002
  Exact polarizability: 128.704  -8.478  97.508   0.000  -0.002  86.650
 Approx polarizability: 132.990  -8.467 117.345   0.000  -0.003  95.792
   1 Symmetry operations used in ECPInt.
 ECPInt:  NShTT=    4278 NPrTT=   18734 LenC2=    4036 LenP2D=   12395.
 LDataN:  DoStor=T MaxTD1= 6 Len=  172
 Calling FoFJK, ICntrl=    100127 FMM=F ISym2X=0 I1Cent= 0 IOpClX= 0 NMat=1 NMatS=1 NMatT=0.
 Full mass-weighted force constant matrix:
 Low frequencies ---   -0.0016   -0.0006    0.0037    2.3422    4.0262    9.2873
 Low frequencies ---   31.5654   52.6002   55.1687
 Diagonal vibrational polarizability:

                      1                      2                      3
                      A                      A                      A
 Frequencies --     31.5654                52.6002                55.1687
 Red. masses --      7.7990                 8.9283                 3.6463
 Frc consts  --      0.0046                 0.0146                 0.0065
 IR Inten    --      0.0238                 3.6054                 3.2196

                      4                      5                      6
                      A                      A                      A
 Frequencies --     58.4427                59.8395                62.8031
 Red. masses --      4.8319                11.9290                 7.4699
 Frc consts  --      0.0097                 0.0252                 0.0174
 IR Inten    --      0.0000                 0.0000                 0.0000

                      7                      8                      9
                      A                      A                      A
 Frequencies --    259.2511               266.4641               287.8699
 Red. masses --      7.9195                 7.9367                 2.2329
 Frc consts  --      0.3136                 0.3320                 0.1090
 IR Inten    --      0.0000                 4.4082                 0.0000

                     10                     11                     12
                      A                      A                      A
 Frequencies --    290.5120               302.1389               318.9751
 Red. masses --      2.0112                 1.1613                 1.2414
 Frc consts  --      0.1000                 0.0625                 0.0744
 IR Inten    --      0.0840                 0.0000                 0.0023

                     13                     14                     15
                      A                      A                      A
 Frequencies --    331.6379               338.8142               372.3284
 Red. masses --      1.0434                 1.0321                 3.4927
 Frc consts  --      0.0676                 0.0698                 0.2853
 IR Inten    --      1.0336                 0.0000                 8.2476

                     16                     17                     18
                      A                      A                      A
 Frequencies --    375.2572               375.6642               379.4175
 Red. masses --      3.0828                 3.2942                 3.2163
 Frc consts  --      0.2558                 0.2739                 0.2728
 IR Inten    --      7.6457                 0.0000                 0.0000

                     19                     20                     21
                      A                      A                      A
 Frequencies --    398.8875               400.5868               580.1053
 Red. masses --      3.7336                 3.7309                 4.9259
 Frc consts  --      0.3500                 0.3527                 0.9767
 IR Inten    --      7.5592                 0.0000                 0.0000

                     22                     23                     24
                      A                      A                      A
 Frequencies --    580.9394               684.8668               684.9793
 Red. masses --      4.9640                 3.5599                 3.5281
 Frc consts  --      0.9871                 0.9838                 0.9753
 IR Inten    --     27.2131                 0.0014               184.5077

                     25                     26                     27
                      A                      A                      A
 Frequencies --    946.8273               946.8392               968.2456
 Red. masses --      2.4978                 2.5107                 1.4171
 Frc consts  --      1.3193                 1.3262                 0.7827
 IR Inten    --     16.5928                 0.0050                 0.0029

                     28                     29                     30
                      A                      A                      A
 Frequencies --    968.5431              1037.6946              1038.8013
 Red. masses --      1.4170                 1.2735                 1.2712
 Frc consts  --      0.7832                 0.8080                 0.8082
 IR Inten    --      0.0000                 0.0000                 0.0998

                     31                     32                     33
                      A                      A                      A
 Frequencies --   1155.2891              1157.4917              1197.2143
 Red. masses --      1.7228                 1.7394                 1.9501
 Frc consts  --      1.3548                 1.3730                 1.6469
 IR Inten    --      0.0000               193.4113                 0.0000

                     34                     35                     36
                      A                      A                      A
 Frequencies --   1202.0996              1239.3110              1241.8601
 Red. masses --      1.9702                 3.0840                 3.1156
 Frc consts  --      1.6774                 2.7908                 2.8310
 IR Inten    --     76.2043                 0.0000                11.4010

                     37                     38                     39
                      A                      A                      A
 Frequencies --   1415.8606              1416.6204              1428.5019
 Red. masses --      1.3396                 1.3340                 1.2464
 Frc consts  --      1.5822                 1.5773                 1.4986
 IR Inten    --      0.0000                40.4148                11.3885

                     40                     41                     42
                      A                      A                      A
 Frequencies --   1431.7461              1469.8105              1471.9419
 Red. masses --      1.2519                 1.0414                 1.0425
 Frc consts  --      1.5120                 1.3255                 1.3308
 IR Inten    --      0.0000                 0.0000                 1.2798

                     43                     44                     45
                      A                      A                      A
 Frequencies --   1475.8355              1484.0891              1488.0106
 Red. masses --      1.0499                 1.0478                 1.0472
 Frc consts  --      1.3474                 1.3597                 1.3661
 IR Inten    --      0.0000                 6.0617                 9.5626

                     46                     47                     48
                      A                      A                      A
 Frequencies --   1492.1858              1492.9051              1500.4527
 Red. masses --      1.0418                 1.0429                 1.0451
 Frc consts  --      1.3668                 1.3694                 1.3863
 IR Inten    --      6.7979                 0.0000                 0.0000

                     49                     50                     51
                      A                      A                      A
 Frequencies --   3051.1124              3052.0209              3054.1133
 Red. masses --      1.0362                 1.0361                 1.0367
 Frc consts  --      5.6836                 5.6865                 5.6975
 IR Inten    --      0.0000                11.1623                10.8387

                     52                     53                     54
                      A                      A                      A
 Frequencies --   3055.1124              3151.3473              3152.4917
 Red. masses --      1.0366                 1.1061                 1.1058
 Frc consts  --      5.7006                 6.4722                 6.4751
 IR Inten    --      0.0000                 0.0000                 0.7948

                     55                     56                     57
                      A                      A                      A
 Frequencies --   3155.4910              3156.2285              3168.5753
 Red. masses --      1.1051                 1.1052                 1.1070
 Frc consts  --      6.4834                 6.4866                 6.5480
 IR Inten    --      7.8285                 0.0000                 0.0000

                     58                     59                     60
                      A                      A                      A
 Frequencies --   3169.5745              3169.9477              3171.0185
 Red. masses --      1.1069                 1.1070                 1.1070
 Frc consts  --      6.5520                 6.5541                 6.5584
 IR Inten    --      2.7037                 2.2192                 0.0000

                           ! Non-Optimized Parameters !
 Normal termination of Gaussian 16 at Tue Aug  9 16:20:31 2022.
