 Gaussian 16, Revision B.01,
 Gaussian 16:  ES64L-G16RevB.01 20-Dec-2017

 ----------------------------------------------------------------------
 #T wB97XD/def2svpp opt=(tight,calcall,MaxStep=5) freq int(grid=ultrafi
 ne) scf=(verytight,qc) Volume=tight
 ----------------------------------------------------------------------
 -----
 Dimer
 -----
 Symbolic Z-matrix:
 Charge =  0 Multiplicity = 1

 SCF Done:  E(RwB97XD) =  -4070.73752386     a.u. after    8 cycles
 SCF Done:  E(RwB97XD) =  -4070.73750929     a.u. after    2 cycles
 SCF Done:  E(RwB97XD) =  -4070.73754687     a.u. after    2 cycles
 SCF Done:  E(RwB97XD) =  -4070.73753217     a.u. after    2 cycles
 SCF Done:  E(RwB97XD) =  -4070.73751178     a.u. after    2 cycles
 SCF Done:  E(RwB97XD) =  -4070.73754486     a.u. after    2 cycles
 SCF Done:  E(RwB97XD) =  -4070.73754156     a.u. after    2 cycles
 SCF Done:  E(RwB97XD) =  -4070.73753314     a.u. after    2 cycles
 SCF Done:  E(RwB97XD) =  -4070.73754584     a.u. after    2 cycles
 SCF Done:  E(RwB97XD) =  -4070.73754360     a.u. after    2 cycles
 SCF Done:  E(RwB97XD) =  -4070.73751239     a.u. after    2 cycles
 SCF Done:  E(RwB97XD) =  -4070.73753049     a.u. after    7 cycles
 SCF Done:  E(RwB97XD) =  -4070.73754654     a.u. after    2 cycles
 SCF Done:  E(RwB97XD) =  -4070.73753971     a.u. after    2 cycles
 SCF Done:  E(RwB97XD) =  -4070.73754114     a.u. after    2 cycles
 SCF Done:  E(RwB97XD) =  -4070.73754089     a.u. after    2 cycles
 SCF Done:  E(RwB97XD) =  -4070.73754118     a.u. after    2 cycles
 SCF Done:  E(RwB97XD) =  -4070.73754089     a.u. after    2 cycles
 SCF Done:  E(RwB97XD) =  -4070.73754114     a.u. after    2 cycles
 Optimization completed.
    -- Stationary point found.
 Normal termination of Gaussian 16 at Thu Nov 16 00:20:59 2023.

 ---------------------------------------------------------------------
 #T Geom=AllCheck Guess=TCheck SCRF=Check GenChk RwB97XD/def2SVPP Freq
 ---------------------------------------------------------------------
 Structure from the checkpoint file:  "1.chk"
 -----
 Dimer
 -----
 Charge =  0 Multiplicity = 1

                         Standard orientation:
 ---------------------------------------------------------------------
 Center     Atomic      Atomic             Coordinates (Angstroms)
 Number     Number       Type             X           Y           Z
 ---------------------------------------------------------------------
      1         17           0        1.229336    0.714024   -1.990766
      2          6           0        2.192670   -0.546739   -1.143996
      3          6           0        3.063833    0.000002   -0.000001
      4          6           0        3.934474   -1.152556    0.533325
      5         17           0        5.092544   -1.798522   -0.677222
      6          6           0        3.934481    1.152549   -0.533339
      7         17           0        5.092574    1.798501    0.677192
      8          6           0        2.192693    0.546753    1.144006
      9         17           0        1.229355   -0.713997    1.990791
     10          1           0        2.818748   -1.025835   -1.908858
     11          1           0        1.468995   -1.276237   -0.752290
     12          1           0        3.307234   -1.994524    0.854397
     13          1           0        4.533256   -0.805440    1.387327
     14          1           0        3.307247    1.994526   -0.854402
     15          1           0        4.533246    0.805427   -1.387351
     16          1           0        1.469022    1.276259    0.752308
     17          1           0        2.818787    1.025841    1.908859
     18         17           0       -5.092537    0.677191   -1.798538
     19          6           0       -3.934462   -0.533343   -1.152557
     20          6           0       -3.063831   -0.000001    0.000001
     21          6           0       -2.192687   -1.143998    0.546770
     22         17           0       -1.229342   -1.990794   -0.713967
     23          6           0       -2.192671    1.143993   -0.546745
     24         17           0       -1.229355    1.990785    0.714018
     25          6           0       -3.934489    0.533342    1.152538
     26         17           0       -5.092582   -0.677189    1.798492
     27          1           0       -3.307215   -0.854415   -1.994521
     28          1           0       -4.533238   -1.387348   -0.805439
     29          1           0       -2.818779   -1.908847    1.025866
     30          1           0       -1.469019   -0.752287    1.276272
     31          1           0       -2.818750    1.908844   -1.025856
     32          1           0       -1.468985    0.752283   -1.276231
     33          1           0       -4.533256    1.387348    0.805405
     34          1           0       -3.307262    0.854415    1.994517
 ---------------------------------------------------------------------

 SCF Done:  E(RwB97XD) =  -4070.73754114     a.u. after    1 cycles

 The electronic state is 1-A.
 Alpha  occ. eigenvalues -- -101.68326-101.68324-101.68323-101.68323-101.67838
 Alpha  occ. eigenvalues -- -101.67838-101.67837-101.67837 -10.36800 -10.36800
 Alpha  occ. eigenvalues --  -10.36796 -10.36796 -10.36757 -10.36757 -10.36753
 Alpha  occ. eigenvalues --  -10.36753 -10.36535 -10.36534  -9.59050  -9.59050
 Alpha  occ. eigenvalues --   -9.59049  -9.59049  -9.58599  -9.58599  -9.58598
 Alpha  occ. eigenvalues --   -9.58598  -7.34423  -7.34422  -7.34422  -7.34422
 Alpha  occ. eigenvalues --   -7.33983  -7.33983  -7.33983  -7.33983  -7.33470
 Alpha  occ. eigenvalues --   -7.33470  -7.33470  -7.33470  -7.33450  -7.33450
 Alpha  occ. eigenvalues --   -7.33449  -7.33449  -7.33019  -7.33019  -7.33018
 Alpha  occ. eigenvalues --   -7.33018  -7.32982  -7.32982  -7.32982  -7.32982
 Alpha  occ. eigenvalues --   -1.01541  -1.01418  -0.96444  -0.96194  -0.96028
 Alpha  occ. eigenvalues --   -0.96028  -0.95604  -0.95604  -0.88522  -0.88451
 Alpha  occ. eigenvalues --   -0.78566  -0.78566  -0.78185  -0.78185  -0.76706
 Alpha  occ. eigenvalues --   -0.76450  -0.65600  -0.65291  -0.61157  -0.61061
 Alpha  occ. eigenvalues --   -0.58718  -0.58718  -0.57933  -0.57933  -0.56625
 Alpha  occ. eigenvalues --   -0.56062  -0.54192  -0.53072  -0.51277  -0.51277
 Alpha  occ. eigenvalues --   -0.50928  -0.50928  -0.50110  -0.49443  -0.47900
 Alpha  occ. eigenvalues --   -0.47900  -0.47499  -0.47499  -0.47129  -0.47110
 Alpha  occ. eigenvalues --   -0.41899  -0.41247  -0.40503  -0.40503  -0.39950
 Alpha  occ. eigenvalues --   -0.39950  -0.39539  -0.39454  -0.38959  -0.38691
 Alpha  occ. eigenvalues --   -0.38224  -0.38224  -0.38080  -0.37841  -0.37777
 Alpha  occ. eigenvalues --   -0.37777
 Alpha virt. eigenvalues --    0.09251   0.09445   0.09924   0.09924   0.10161
 Alpha virt. eigenvalues --    0.10555   0.10814   0.10814   0.14978   0.15865
 Alpha virt. eigenvalues --    0.16724   0.16724   0.17015   0.17042   0.17042

 Mulliken charges:
               1
     1  Cl  -0.135985
     2  C   -0.140059
     3  C   -0.275002
     4  C   -0.129462
     5  Cl  -0.142617
     6  C   -0.129462
     7  Cl  -0.142617
     8  C   -0.140058
     9  Cl  -0.135986
    10  H    0.171251
    11  H    0.168045
    12  H    0.173006
    13  H    0.173323
    14  H    0.173006
    15  H    0.173323
    16  H    0.168044
    17  H    0.171251
    18  Cl  -0.142617
    19  C   -0.129461
    20  C   -0.275002
    21  C   -0.140058
    22  Cl  -0.135986
    23  C   -0.140060
    24  Cl  -0.135986
    25  C   -0.129461
    26  Cl  -0.142617
    27  H    0.173006
    28  H    0.173323
    29  H    0.171251
    30  H    0.168044
    31  H    0.171251
    32  H    0.168045
    33  H    0.173323
    34  H    0.173006
 Sum of Mulliken charges =  -0.00000

 Dipole moment (field-independent basis, Debye):
    X=              0.0000    Y=             -0.0000    Z=              0.0000  Tot=              0.0000
  Exact polarizability: 210.672  -0.000 157.236  -0.000   0.000 157.236
 Approx polarizability: 210.494  -0.000 194.678  -0.000   0.000 194.678
   1 Symmetry operations used in ECPInt.
 ECPInt:  NShTT=   12246 NPrTT=   54318 LenC2=   10630 LenP2D=   30423.
 LDataN:  DoStor=T MaxTD1= 6 Len=  172
 Calling FoFJK, ICntrl=    100127 FMM=F ISym2X=0 I1Cent= 0 IOpClX= 0 NMat=1 NMatS=1 NMatT=0.
 Full mass-weighted force constant matrix:
 Low frequencies ---   -0.0027   -0.0026   -0.0012    7.1029    7.1045    7.7282
 Low frequencies ---   21.8024   21.8028   24.5998
 Diagonal vibrational polarizability:

                      1                      2                      3
                      A                      A                      A
 Frequencies --     21.6931                21.6936                24.5998
 Red. masses --     16.4773                16.4772                13.5068
 Frc consts  --      0.0046                 0.0046                 0.0048
 IR Inten    --      0.0331                 0.0331                 0.0055

                      4                      5                      6
                      A                      A                      A
 Frequencies --     48.3643                48.3672                52.3561
 Red. masses --     13.7457                13.7457                15.3441
 Frc consts  --      0.0189                 0.0189                 0.0248
 IR Inten    --      0.0535                 0.0535                 0.0000

                      7                      8                      9
                      A                      A                      A
 Frequencies --     68.6720                70.7802                87.7048
 Red. masses --      9.5790                12.7086                20.5505
 Frc consts  --      0.0266                 0.0375                 0.0931
 IR Inten    --      0.0000                 3.2596                 0.0000

                     10                     11                     12
                      A                      A                      A
 Frequencies --     88.2646               121.2464               121.2471
 Red. masses --     18.2995                 6.4196                 6.4195
 Frc consts  --      0.0840                 0.0556                 0.0556
 IR Inten    --      2.5394                 2.4369                 2.4368

                     13                     14                     15
                      A                      A                      A
 Frequencies --    121.9965               125.5114               147.8467
 Red. masses --     18.4018                17.5879                 5.5973
 Frc consts  --      0.1614                 0.1632                 0.0721
 IR Inten    --      0.0000                 4.8741                 5.0491

                     16                     17                     18
                      A                      A                      A
 Frequencies --    147.8493               217.1416               217.1419
 Red. masses --      5.5975                 3.7281                 3.7280
 Frc consts  --      0.0721                 0.1036                 0.1036
 IR Inten    --      5.0490                 2.5466                 2.5468

                     19                     20                     21
                      A                      A                      A
 Frequencies --    225.5413               227.9508               237.8298
 Red. masses --      7.5962                 7.6246                 3.9129
 Frc consts  --      0.2277                 0.2334                 0.1304
 IR Inten    --      0.0000                 0.3995                 3.6022

                     22                     23                     24
                      A                      A                      A
 Frequencies --    237.8318               309.2772               310.4914
 Red. masses --      3.9129                 2.5611                 2.5869
 Frc consts  --      0.1304                 0.1443                 0.1469
 IR Inten    --      3.6023                 1.8624                 0.0000

                     25                     26                     27
                      A                      A                      A
 Frequencies --    324.5440               327.5533               418.2223
 Red. masses --      2.5608                 2.5857                 4.1332
 Frc consts  --      0.1589                 0.1635                 0.4259
 IR Inten    --     20.9383                 0.0000                 4.2894

                     28                     29                     30
                      A                      A                      A
 Frequencies --    418.2225               432.2017               432.2025
 Red. masses --      4.1332                 4.2450                 4.2449
 Frc consts  --      0.4259                 0.4672                 0.4672
 IR Inten    --      4.2898                 4.9909                 4.9909

                     31                     32                     33
                      A                      A                      A
 Frequencies --    547.0808               547.7621               702.8969
 Red. masses --      3.4757                 3.5356                 4.8647
 Frc consts  --      0.6129                 0.6250                 1.4161
 IR Inten    --      0.0000                22.7176                 0.0000

                     34                     35                     36
                      A                      A                      A
 Frequencies --    703.7726               778.6278               778.6280
 Red. masses --      4.8835                 4.1719                 4.1719
 Frc consts  --      1.4251                 1.4902                 1.4902
 IR Inten    --      0.0375                29.6035                29.6033

                     37                     38                     39
                      A                      A                      A
 Frequencies --    791.1675               791.1676               801.2537
 Red. masses --      4.1619                 4.1619                 5.7202
 Frc consts  --      1.5349                 1.5349                 2.1637
 IR Inten    --     30.0083                30.0085                 0.0000

                     40                     41                     42
                      A                      A                      A
 Frequencies --    801.5390               838.2217               838.5807
 Red. masses --      5.7045                 4.2574                 4.2685
 Frc consts  --      2.1593                 1.7624                 1.7685
 IR Inten    --     65.1302                 0.0000                 0.0803

                     43                     44                     45
                      A                      A                      A
 Frequencies --    874.9340               874.9348               896.0964
 Red. masses --      1.8250                 1.8250                 2.1621
 Frc consts  --      0.8231                 0.8231                 1.0229
 IR Inten    --     10.5462                10.5463               112.4202

                     46                     47                     48
                      A                      A                      A
 Frequencies --    897.1072               898.4331               898.4333
 Red. masses --      2.1665                 1.6778                 1.6778
 Frc consts  --      1.0273                 0.7979                 0.7979
 IR Inten    --      0.0000                 8.2394                 8.2393

                     49                     50                     51
                      A                      A                      A
 Frequencies --    953.0710               953.5458              1097.1612
 Red. masses --      1.5775                 1.5788                 1.6536
 Frc consts  --      0.8442                 0.8458                 1.1728
 IR Inten    --      0.0000                 1.5638                 2.7087

                     52                     53                     54
                      A                      A                      A
 Frequencies --   1097.6935              1136.2956              1136.2961
 Red. masses --      1.6585                 1.6874                 1.6874
 Frc consts  --      1.1774                 1.2837                 1.2837
 IR Inten    --      0.0000                 0.2905                 0.2905

                     55                     56                     57
                      A                      A                      A
 Frequencies --   1147.6858              1147.6860              1219.4724
 Red. masses --      1.8084                 1.8084                 1.0183
 Frc consts  --      1.4035                 1.4035                 0.8922
 IR Inten    --      0.0797                 0.0797                 7.0398

                     58                     59                     60
                      A                      A                      A
 Frequencies --   1221.7680              1242.2135              1242.2144
 Red. masses --      1.0188                 1.3378                 1.3378
 Frc consts  --      0.8960                 1.2163                 1.2163
 IR Inten    --      0.0000                 0.2331                 0.2331

                     61                     62                     63
                      A                      A                      A
 Frequencies --   1263.2232              1263.2243              1302.5454
 Red. masses --      1.3658                 1.3658                 1.1632
 Frc consts  --      1.2841                 1.2841                 1.1628
 IR Inten    --      0.3704                 0.3704                 0.0000

                     64                     65                     66
                      A                      A                      A
 Frequencies --   1306.1984              1342.3024              1348.1253
 Red. masses --      1.1765                 1.2183                 1.2053
 Frc consts  --      1.1826                 1.2933                 1.2906
 IR Inten    --     10.9607                 0.0000                 1.0859

                     67                     68                     69
                      A                      A                      A
 Frequencies --   1353.8927              1353.8929              1360.4821
 Red. masses --      1.5048                 1.5048                 1.4789
 Frc consts  --      1.6252                 1.6252                 1.6127
 IR Inten    --     20.7830                20.7834                10.5861

                     70                     71                     72
                      A                      A                      A
 Frequencies --   1360.4826              1365.7047              1365.7320
 Red. masses --      1.4789                 1.5850                 1.5834
 Frc consts  --      1.6127                 1.7418                 1.7401
 IR Inten    --     10.5871                11.8724                 0.0042

                     73                     74                     75
                      A                      A                      A
 Frequencies --   1468.6585              1468.7309              1471.5445
 Red. masses --      1.0980                 1.0982                 1.0829
 Frc consts  --      1.3954                 1.3957                 1.3816
 IR Inten    --      2.4132                 0.0001                28.8364

                     76                     77                     78
                      A                      A                      A
 Frequencies --   1471.5453              1481.8072              1485.0171
 Red. masses --      1.0829                 1.0904                 1.0869
 Frc consts  --      1.3816                 1.4106                 1.4122
 IR Inten    --     28.8362                 0.0007                16.5787

                     79                     80                     81
                      A                      A                      A
 Frequencies --   1485.0173              1485.1243              3115.8955
 Red. masses --      1.0869                 1.0893                 1.0601
 Frc consts  --      1.4122                 1.4155                 6.0640
 IR Inten    --     16.5782                 0.0017                 0.0379

                     82                     83                     84
                      A                      A                      A
 Frequencies --   3115.9117              3116.0434              3116.0447
 Red. masses --      1.0600                 1.0593                 1.0593
 Frc consts  --      6.0633                 6.0602                 6.0602
 IR Inten    --     25.1538                 2.1192                 2.1189

                     85                     86                     87
                      A                      A                      A
 Frequencies --   3119.5145              3119.5146              3119.5497
 Red. masses --      1.0603                 1.0603                 1.0605
 Frc consts  --      6.0796                 6.0796                 6.0805
 IR Inten    --      4.0064                 4.0064                 0.0000

                     88                     89                     90
                      A                      A                      A
 Frequencies --   3119.6390              3192.8033              3192.8232
 Red. masses --      1.0604                 1.1126                 1.1125
 Frc consts  --      6.0806                 6.6822                 6.6819
 IR Inten    --      0.3618                 0.0078                12.1835

                     91                     92                     93
                      A                      A                      A
 Frequencies --   3192.9213              3192.9223              3195.4811
 Red. masses --      1.1111                 1.1111                 1.1099
 Frc consts  --      6.6739                 6.6739                 6.6772
 IR Inten    --      0.1318                 0.1314                 0.0374

                     94                     95                     96
                      A                      A                      A
 Frequencies --   3195.4813              3195.5741              3195.6299
 Red. masses --      1.1099                 1.1112                 1.1111
 Frc consts  --      6.6772                 6.6854                 6.6853
 IR Inten    --      0.0374                 0.0000                 0.4005

                           ! Non-Optimized Parameters !
 Normal termination of Gaussian 16 at Thu Nov 16 00:33:53 2023.
