 Gaussian 16, Revision B.01,
 Gaussian 16:  ES64L-G16RevB.01 20-Dec-2017

 --------------------------------------------------------------
 #T wB97XD//def2svpp Volume=tight Geom=AllCheckpoint Guess=Read
 --------------------------------------------------------------
 Structure from the checkpoint file:  "monomer.chk"
 -------
 Monomer
 -------
 Charge =  0 Multiplicity = 1

                         Standard orientation:
 ---------------------------------------------------------------------
 Center     Atomic      Atomic             Coordinates (Angstroms)
 Number     Number       Type             X           Y           Z
 ---------------------------------------------------------------------
      1          6           0       -1.755229   -0.713378   -0.002241
      2          6           0       -0.452893    0.021465   -0.329473
      3          7           0       -0.429425    1.417478    0.100291
      4          6           0        0.769431   -0.691377    0.273179
      5          7           0        2.051698   -0.093637   -0.040442
      6          1           0       -2.624022   -0.195969   -0.446642
      7          1           0       -1.910538   -0.757787    1.092147
      8          1           0       -1.746137   -1.750106   -0.383704
      9          1           0       -0.318722    0.029600   -1.427980
     10          1           0       -0.663209    1.485226    1.093064
     11          1           0       -1.118194    1.972059   -0.407127
     12          1           0        0.775424   -1.747882   -0.049031
     13          1           0        0.649273   -0.708806    1.375325
     14          1           0        1.977816    0.913110    0.120609
     15          1           0        2.254546   -0.206590   -1.034399
 ---------------------------------------------------------------------

 SCF Done:  E(RwB97XD) =  -229.569747708     A.U. after    1 cycles

 The electronic state is 1-A.
 Alpha  occ. eigenvalues --  -14.41847 -14.39786 -10.31776 -10.30408 -10.28400
 Alpha  occ. eigenvalues --   -0.99051  -0.94536  -0.82940  -0.74470  -0.67064
 Alpha  occ. eigenvalues --   -0.59875  -0.56148  -0.52914  -0.51464  -0.50193
 Alpha  occ. eigenvalues --   -0.46595  -0.45674  -0.43287  -0.41649  -0.32278
 Alpha  occ. eigenvalues --   -0.30263
 Alpha virt. eigenvalues --    0.12705   0.15682   0.17368   0.17690   0.20407
 Alpha virt. eigenvalues --    0.22125   0.22571   0.23392   0.24099   0.27467
 Alpha virt. eigenvalues --    0.31319   0.32770   0.33364   0.33956   0.52676

 Mulliken charges:
               1
     1  C   -0.297184
     2  C   -0.099338
     3  N   -0.509847
     4  C   -0.070439
     5  N   -0.499263
     6  H    0.112399
     7  H    0.105828
     8  H    0.115513
     9  H    0.080359
    10  H    0.215707
    11  H    0.222096
    12  H    0.101751
    13  H    0.087928
    14  H    0.225402
    15  H    0.209086
 Sum of Mulliken charges =   0.00000

 Dipole moment (field-independent basis, Debye):
    X=             -2.3244    Y=              0.4693    Z=             -0.6976  Tot=              2.4718
 Evaluate density.
 Using the total density.
 Monte-Carlo method of calculating molar volume:
 based on  0.001 e/bohr**3 density envelope.
 Number of points per bohr**3 =  100 CutOff= 1.00D-04
 Using the SCF density.
 There are      1633 points.  Will hold      1633 in memory.
 LenV=  1048405678 MDV=  1048576000.
 Box volume = 4355.204 fraction occupied=0.192
 Integrated density= 1.9968086203473675D+02 error= 1.5768086203473675D+02

 Normal termination of Gaussian 16 at Tue Apr  2 13:46:36 2024.
