 Gaussian 16, Revision B.01,
 Gaussian 16:  ES64L-G16RevB.01 20-Dec-2017

 --------------------------------------------------------------
 #T wB97XD//def2svpp Volume=tight Geom=AllCheckpoint Guess=Read
 --------------------------------------------------------------
 Structure from the checkpoint file:  "27.chk"
 -------
 Monomer
 -------
 Charge =  0 Multiplicity = 1

                         Standard orientation:
 ---------------------------------------------------------------------
 Center     Atomic      Atomic             Coordinates (Angstroms)
 Number     Number       Type             X           Y           Z
 ---------------------------------------------------------------------
      1          6           0        1.073549    1.433793   -0.000002
      2          6           0        0.553789    0.002788    0.000000
      3          6           0        0.969857   -0.751000   -1.264261
      4          6           0        0.969855   -0.750996    1.264264
      5          7           0       -0.982512    0.028591   -0.000001
      6          8           0       -1.542785    1.099652   -0.000001
      7          8           0       -1.541156   -1.045647    0.000000
      8          1           0        2.176421    1.407209   -0.000002
      9          1           0        0.736935    1.985100    0.891503
     10          1           0        0.736935    1.985098   -0.891508
     11          1           0        2.070194   -0.810681   -1.305004
     12          1           0        0.619446   -0.225726   -2.169120
     13          1           0        0.558621   -1.772145   -1.265320
     14          1           0        2.070192   -0.810677    1.305009
     15          1           0        0.558619   -1.772141    1.265326
     16          1           0        0.619443   -0.225719    2.169120
 ---------------------------------------------------------------------

 SCF Done:  E(RwB97XD) =  -362.564202470     A.U. after    1 cycles

 The electronic state is 1-A.
 Alpha  occ. eigenvalues --  -19.28601 -19.28300 -14.67292 -10.37151 -10.30728
 Alpha  occ. eigenvalues --  -10.30726 -10.30212  -1.33188  -1.15379  -0.95734
 Alpha  occ. eigenvalues --   -0.80607  -0.79980  -0.78668  -0.65202  -0.63367
 Alpha  occ. eigenvalues --   -0.61278  -0.59888  -0.54850  -0.54171  -0.51050
 Alpha  occ. eigenvalues --   -0.49490  -0.49288  -0.47013  -0.44450  -0.44450
 Alpha  occ. eigenvalues --   -0.39388  -0.38174  -0.37728
 Alpha virt. eigenvalues --    0.01710   0.12154   0.14969   0.17999   0.19036
 Alpha virt. eigenvalues --    0.19122   0.19381   0.22982   0.23233   0.24134
 Alpha virt. eigenvalues --    0.25656   0.26161   0.28920   0.29908   0.38222

 Mulliken charges:
               1
     1  C   -0.243668
     2  C   -0.207961
     3  C   -0.268675
     4  C   -0.268674
     5  N    0.247109
     6  O   -0.242652
     7  O   -0.253574
     8  H    0.124507
     9  H    0.136673
    10  H    0.136673
    11  H    0.131839
    12  H    0.135950
    13  H    0.152332
    14  H    0.131839
    15  H    0.152332
    16  H    0.135950
 Sum of Mulliken charges =  -0.00000

 Dipole moment (field-independent basis, Debye):
    X=              3.7396    Y=             -0.0833    Z=              0.0000  Tot=              3.7405
 Evaluate density.
 Using the total density.
 Monte-Carlo method of calculating molar volume:
 based on  0.001 e/bohr**3 density envelope.
 Number of points per bohr**3 =  100 CutOff= 1.00D-04
 Using the SCF density.
 There are      1711 points.  Will hold      1711 in memory.
 LenV=  1048344291 MDV=  1048576000.
 Box volume = 5017.134 fraction occupied=0.185
 Integrated density= 4.9256029653485257D+01 error=-6.7439703465147431D+00

 Normal termination of Gaussian 16 at Fri Sep 23 14:19:33 2022.
