 Gaussian 16, Revision B.01,
 Gaussian 16:  ES64L-G16RevB.01 20-Dec-2017

 ----------------------------------------------------------------------
 #T wB97XD/def2svpp opt=tight freq int(grid=ultrafine) scf=(verytight,q
 c)
 ----------------------------------------------------------------------
 -------
 comment
 -------
 Symbolic Z-matrix:
 Charge =  1 Multiplicity = 2

 SCF Done:  E(UwB97XD) =  -497.703579464     a.u. after   10 cycles
 SCF Done:  E(UwB97XD) =  -497.712676434     a.u. after   11 cycles
 SCF Done:  E(UwB97XD) =  -497.714040962     a.u. after   15 cycles
 SCF Done:  E(UwB97XD) =  -497.716293561     a.u. after   11 cycles
 SCF Done:  E(UwB97XD) =  -497.719181661     a.u. after   12 cycles
 SCF Done:  E(UwB97XD) =  -497.720135514     a.u. after   11 cycles
 SCF Done:  E(UwB97XD) =  -497.720184237     a.u. after    9 cycles
 SCF Done:  E(UwB97XD) =  -497.720917786     a.u. after    7 cycles
 SCF Done:  E(UwB97XD) =  -497.721032767     a.u. after    7 cycles
 SCF Done:  E(UwB97XD) =  -497.721126534     a.u. after    6 cycles
 SCF Done:  E(UwB97XD) =  -497.736535302     a.u. after    2 cycles
 SCF Done:  E(UwB97XD) =  -497.736535649     a.u. after    2 cycles
 SCF Done:  E(UwB97XD) =  -497.736535897     a.u. after    2 cycles
 SCF Done:  E(UwB97XD) =  -497.736536002     a.u. after    2 cycles
 SCF Done:  E(UwB97XD) =  -497.736536051     a.u. after    2 cycles
 SCF Done:  E(UwB97XD) =  -497.736536064     a.u. after    2 cycles
 SCF Done:  E(UwB97XD) =  -497.736536069     a.u. after    2 cycles
 SCF Done:  E(UwB97XD) =  -497.736536072     a.u. after    2 cycles
 SCF Done:  E(UwB97XD) =  -497.736536073     a.u. after    2 cycles
 Optimization completed.
    -- Stationary point found.
 Normal termination of Gaussian 16 at Mon Jul 10 20:53:20 2023.

 ---------------------------------------------------------------------
 #T Geom=AllCheck Guess=TCheck SCRF=Check GenChk UwB97XD/def2SVPP Freq
 ---------------------------------------------------------------------
 Structure from the checkpoint file:  "2.chk"
 -------
 comment
 -------
 Charge =  1 Multiplicity = 2

                         Standard orientation:
 ---------------------------------------------------------------------
 Center     Atomic      Atomic             Coordinates (Angstroms)
 Number     Number       Type             X           Y           Z
 ---------------------------------------------------------------------
      1          8           0       -1.414940   -0.592074    1.302439
      2          6           0       -0.100480    0.017265    1.307162
      3          6           0        0.314786    0.201416   -0.157633
      4          6           0       -0.636637    1.125964   -0.901894
      5          8           0       -1.570614    1.852683   -0.264334
      6          6           0        1.755615    0.744578   -0.196352
      7          8           0        2.582494   -0.221342    0.388786
      8          6           0        0.298910   -1.168590   -0.857431
      9          8           0       -1.099512   -1.671725   -0.861738
     10          1           0       -1.691091   -0.886070    2.186189
     11          1           0        0.619776   -0.633708    1.826221
     12          1           0       -0.153775    0.988218    1.826262
     13          1           0       -1.628207   -1.169992   -1.523732
     14          1           0       -0.279230    1.622772   -1.811243
     15          1           0       -1.979525    1.359566    0.466251
     16          1           0        1.781383    1.712524    0.342305
     17          1           0        2.030154    0.944049   -1.251465
     18          1           0        3.503320    0.075203    0.394198
     19          1           0        0.875731   -1.940596   -0.332781
     20          1           0        0.612295   -1.121634   -1.909666
     21          1           0       -1.463424   -1.414469    0.103118
 ---------------------------------------------------------------------

 SCF Done:  E(UwB97XD) =  -497.736536073     a.u. after    1 cycles

 The electronic state is 2-A.
 Alpha  occ. eigenvalues --  -19.55053 -19.49211 -19.43901 -19.40402 -10.54706
 Alpha  occ. eigenvalues --  -10.52993 -10.50229 -10.50220 -10.50013  -1.41049
 Alpha  occ. eigenvalues --   -1.33651  -1.30799  -1.27085  -1.09658  -0.98365
 Alpha  occ. eigenvalues --   -0.95814  -0.91967  -0.91444  -0.85869  -0.81772
 Alpha  occ. eigenvalues --   -0.81005  -0.76637  -0.75126  -0.74017  -0.72812
 Alpha  occ. eigenvalues --   -0.70644  -0.68912  -0.68178  -0.67111  -0.65459
 Alpha  occ. eigenvalues --   -0.64298  -0.60789  -0.58712  -0.57615  -0.56349
 Alpha  occ. eigenvalues --   -0.51106  -0.41436
 Alpha virt. eigenvalues --   -0.07055  -0.03849  -0.01150   0.01092   0.02312
 Alpha virt. eigenvalues --    0.02450   0.03615   0.04738   0.04994   0.06525
 Alpha virt. eigenvalues --    0.06659   0.09484   0.10174   0.10604   0.12638

  Beta  occ. eigenvalues --  -19.55016 -19.49209 -19.43381 -19.40382 -10.54638
  Beta  occ. eigenvalues --  -10.52993 -10.50148 -10.50049 -10.49166  -1.40964
  Beta  occ. eigenvalues --   -1.33595  -1.29422  -1.27004  -1.09274  -0.98237
  Beta  occ. eigenvalues --   -0.95290  -0.91409  -0.90334  -0.85384  -0.81727
  Beta  occ. eigenvalues --   -0.80687  -0.76484  -0.74924  -0.73540  -0.72667
  Beta  occ. eigenvalues --   -0.70197  -0.68018  -0.67585  -0.66810  -0.64481
  Beta  occ. eigenvalues --   -0.62399  -0.59579  -0.58109  -0.57269  -0.55659
  Beta  occ. eigenvalues --   -0.51070
  Beta virt. eigenvalues --   -0.12923  -0.06396  -0.03462  -0.00979   0.01421
  Beta virt. eigenvalues --    0.02493   0.02574   0.03733   0.04977   0.05229
  Beta virt. eigenvalues --    0.06599   0.06782   0.09666   0.10631   0.10683

 Mulliken charges and spin densities:
               1          2
     1  O   -0.556809   0.000579
     2  C    0.021281  -0.000545
     3  C   -0.351684  -0.054235
     4  C   -0.065666   0.857998
     5  O   -0.350589   0.161326
     6  C    0.065898   0.029307
     7  O   -0.487601   0.003193
     8  C    0.025381   0.026818
     9  O   -0.430677   0.005348
    10  H    0.395367  -0.000026
    11  H    0.183799  -0.000506
    12  H    0.172530  -0.000539
    13  H    0.416441   0.012088
    14  H    0.162982  -0.036899
    15  H    0.354794  -0.004162
    16  H    0.144447  -0.001556
    17  H    0.133938  -0.000737
    18  H    0.354581   0.002204
    19  H    0.206319   0.002369
    20  H    0.192477  -0.000776
    21  H    0.412791  -0.001246
 Sum of Mulliken charges =   1.00000   1.00000

 Dipole moment (field-independent basis, Debye):
    X=             -0.9230    Y=             -2.5389    Z=              0.8130  Tot=              2.8212
  Exact polarizability:  66.270  -0.437  59.941  -1.912   0.083  61.880
 Approx polarizability:  68.299  -1.560  64.801  -2.028  -0.443  66.909
                          Isotropic Fermi Contact Couplings
        Atom                 a.u.       MegaHertz       Gauss      10(-4) cm-1
     1  O(17)             -0.00134       0.81403       0.29047       0.27153
     2  C(13)             -0.00003      -0.03774      -0.01346      -0.01259
     3  C(13)             -0.01837     -20.64892      -7.36805      -6.88774
     4  C(13)              0.22244     250.06380      89.22898      83.41230
     5  O(17)              0.08568     -51.94122     -18.53392     -17.32572
     6  C(13)              0.06147      69.09904      24.65625      23.04896

                      1                      2                      3
                      A                      A                      A
 Frequencies --     74.7881               120.4612               147.0222
 Red. masses --      4.6639                 4.0713                 3.4511
 Frc consts  --      0.0154                 0.0348                 0.0440
 IR Inten    --      2.9643                 2.9716                19.3898

                      4                      5                      6
                      A                      A                      A
 Frequencies --    165.4419               238.4057               251.7946
 Red. masses --      3.5938                 3.0181                 2.6086
 Frc consts  --      0.0580                 0.1011                 0.0974
 IR Inten    --      2.2566                 9.8939                17.0343

                      7                      8                      9
                      A                      A                      A
 Frequencies --    313.6482               343.4063               360.1873
 Red. masses --      1.5521                 1.5535                 2.5287
 Frc consts  --      0.0900                 0.1079                 0.1933
 IR Inten    --     51.6936                71.2082                14.7955

                     10                     11                     12
                      A                      A                      A
 Frequencies --    392.3386               398.0946               454.4152
 Red. masses --      2.5714                 3.3237                 1.5319
 Frc consts  --      0.2332                 0.3103                 0.1864
 IR Inten    --      8.5588                47.9534                66.7823

                     13                     14                     15
                      A                      A                      A
 Frequencies --    467.3838               532.9686               562.5708
 Red. masses --      2.3658                 2.0088                 1.4474
 Frc consts  --      0.3045                 0.3362                 0.2699
 IR Inten    --    108.5709                 4.2900               133.2787

                     16                     17                     18
                      A                      A                      A
 Frequencies --    601.7228               631.0956               687.9216
 Red. masses --      1.5877                 2.7561                 1.5549
 Frc consts  --      0.3387                 0.6467                 0.4335
 IR Inten    --     13.6678                28.0872                68.7536

                     19                     20                     21
                      A                      A                      A
 Frequencies --    786.8632               901.8678               932.1112
 Red. masses --      2.6974                 2.7522                 1.9076
 Frc consts  --      0.9840                 1.3189                 0.9765
 IR Inten    --      2.8454                50.4082                 4.0218

                     22                     23                     24
                      A                      A                      A
 Frequencies --    946.8930              1001.3609              1027.6878
 Red. masses --      1.8595                 1.7371                 4.2739
 Frc consts  --      0.9823                 1.0262                 2.6595
 IR Inten    --     22.8256                56.4010                76.1302

                     25                     26                     27
                      A                      A                      A
 Frequencies --   1050.9677              1106.8654              1148.1246
 Red. masses --      1.3490                 2.0852                 3.5873
 Frc consts  --      0.8779                 1.5052                 2.7861
 IR Inten    --     75.5140                22.5274                76.0991

                     28                     29                     30
                      A                      A                      A
 Frequencies --   1182.6620              1198.7879              1221.7675
 Red. masses --      1.8462                 1.2531                 1.7460
 Frc consts  --      1.5214                 1.0610                 1.5356
 IR Inten    --     58.2099               220.6374                51.9759

                     31                     32                     33
                      A                      A                      A
 Frequencies --   1239.1010              1257.1827              1275.4121
 Red. masses --      1.3465                 1.1670                 1.1383
 Frc consts  --      1.2181                 1.0867                 1.0910
 IR Inten    --     15.8837                73.6351               180.6951

                     34                     35                     36
                      A                      A                      A
 Frequencies --   1311.9204              1333.7703              1361.4104
 Red. masses --      1.4395                 1.4223                 1.7342
 Frc consts  --      1.4598                 1.4907                 1.8938
 IR Inten    --      9.5115                30.4092                 4.9080

                     37                     38                     39
                      A                      A                      A
 Frequencies --   1368.9003              1427.6194              1462.8901
 Red. masses --      1.4349                 1.5487                 1.8777
 Frc consts  --      1.5843                 1.8597                 2.3675
 IR Inten    --     10.0332                45.9113                61.8027

                     40                     41                     42
                      A                      A                      A
 Frequencies --   1476.5978              1482.9525              1490.1305
 Red. masses --      1.4141                 1.2237                 1.1454
 Frc consts  --      1.8165                 1.5855                 1.4984
 IR Inten    --     14.1267               117.9922                81.2208

                     43                     44                     45
                      A                      A                      A
 Frequencies --   1531.4460              1535.2881              1694.7348
 Red. masses --      1.0858                 1.0890                 1.0594
 Frc consts  --      1.5004                 1.5123                 1.7927
 IR Inten    --      5.1813                26.3163               105.7308

                     46                     47                     48
                      A                      A                      A
 Frequencies --   2316.8331              3011.7071              3065.1618
 Red. masses --      1.0796                 1.0587                 1.1106
 Frc consts  --      3.4145                 5.6580                 6.1479
 IR Inten    --   1108.8018                25.5259                20.8339

                     49                     50                     51
                      A                      A                      A
 Frequencies --   3086.6312              3132.5079              3161.0888
 Red. masses --      1.0613                 1.0622                 1.1135
 Frc consts  --      5.9572                 6.1411                 6.5553
 IR Inten    --      4.3800                 0.1715                 1.0452

                     52                     53                     54
                      A                      A                      A
 Frequencies --   3198.8242              3216.7434              3544.6301
 Red. masses --      1.0897                 1.1152                 1.0642
 Frc consts  --      6.5693                 6.7987                 7.8779
 IR Inten    --      3.6105                 0.5294               173.2826

                     55                     56                     57
                      A                      A                      A
 Frequencies --   3716.5400              3733.2922              3771.9017
 Red. masses --      1.0659                 1.0670                 1.0670
 Frc consts  --      8.6742                 8.7618                 8.9437
 IR Inten    --    155.8996               145.1476               113.0630

                           ! Non-Optimized Parameters !
 Normal termination of Gaussian 16 at Mon Jul 10 20:57:06 2023.
