 Gaussian 16, Revision B.01,
 Gaussian 16:  ES64L-G16RevB.01 20-Dec-2017

 ----------------------------------------------------------------------
 #T wB97XD/def2svpp opt=tight freq int(grid=ultrafine) scf=(verytight,q
 c)
 ----------------------------------------------------------------------
 -----
 dimer
 -----
 Symbolic Z-matrix:
 Charge =  0 Multiplicity = 1

 SCF Done:  E(RwB97XD) =  -916.786203781     a.u. after    8 cycles
 SCF Done:  E(RwB97XD) =  -916.761911229     a.u. after   13 cycles
 SCF Done:  E(RwB97XD) =  -916.786787777     a.u. after   11 cycles
 SCF Done:  E(RwB97XD) =  -916.787826120     a.u. after    3 cycles
 SCF Done:  E(RwB97XD) =  -916.789026249     a.u. after    7 cycles
 SCF Done:  E(RwB97XD) =  -916.788721820     a.u. after   11 cycles
 SCF Done:  E(RwB97XD) =  -916.789563216     a.u. after    7 cycles
 SCF Done:  E(RwB97XD) =  -916.789795364     a.u. after    7 cycles
 SCF Done:  E(RwB97XD) =  -916.789676838     a.u. after    8 cycles
 SCF Done:  E(RwB97XD) =  -916.790175600     a.u. after    7 cycles
 SCF Done:  E(RwB97XD) =  -916.790966155     a.u. after    2 cycles
 SCF Done:  E(RwB97XD) =  -916.790966596     a.u. after    2 cycles
 SCF Done:  E(RwB97XD) =  -916.790966787     a.u. after    2 cycles
 SCF Done:  E(RwB97XD) =  -916.790966902     a.u. after    2 cycles
 SCF Done:  E(RwB97XD) =  -916.790966924     a.u. after    2 cycles
 SCF Done:  E(RwB97XD) =  -916.790966893     a.u. after    2 cycles
 SCF Done:  E(RwB97XD) =  -916.790966886     a.u. after    2 cycles
 SCF Done:  E(RwB97XD) =  -916.790966778     a.u. after    2 cycles
 SCF Done:  E(RwB97XD) =  -916.790966890     a.u. after    2 cycles
 Optimization completed.
    -- Stationary point found.
 Normal termination of Gaussian 16 at Tue Aug  9 20:27:51 2022.

 ---------------------------------------------------------------------
 #T Geom=AllCheck Guess=TCheck SCRF=Check GenChk RwB97XD/def2SVPP Freq
 ---------------------------------------------------------------------
 Structure from the checkpoint file:  "/scratch/user/peterchao1/peterchao1/6113306_1660079070000000361853000/Gau-46478.chk"
 -----
 dimer
 -----
 Charge =  0 Multiplicity = 1

                         Standard orientation:
 ---------------------------------------------------------------------
 Center     Atomic      Atomic             Coordinates (Angstroms)
 Number     Number       Type             X           Y           Z
 ---------------------------------------------------------------------
      1          7           0        1.176710   -1.219013   -1.509550
      2          6           0        2.494010   -1.117828   -0.868297
      3          6           0        2.709214    0.243628   -0.179065
      4          6           0        1.668472    0.500388    0.928277
      5          7           0        1.640649   -0.559667    1.939343
      6          6           0        4.121465    0.253476    0.441315
      7          8           0        4.333376   -0.789645    1.344621
      8          6           0        2.603065    1.377198   -1.216852
      9          8           0        1.351269    1.428186   -1.856903
     10          1           0        0.444377   -1.336844   -0.797265
     11          1           0        1.142595   -2.034776   -2.119882
     12          1           0        3.264553   -1.222629   -1.653142
     13          1           0        2.680365   -1.927355   -0.138977
     14          1           0        0.678587    0.673436    0.471372
     15          1           0        1.943297    1.444855    1.430443
     16          1           0        1.042523   -1.327884    1.623478
     17          1           0        1.227254   -0.212658    2.803951
     18          1           0        4.281181    1.247937    0.917868
     19          1           0        4.879679    0.160589   -0.359275
     20          1           0        3.498975   -0.882798    1.859063
     21          1           0        3.415488    1.250929   -1.964292
     22          1           0        2.766200    2.353473   -0.725049
     23          1           0        1.112378    0.481063   -2.040750
     24          7           0       -3.022031   -2.192385   -0.998378
     25          6           0       -3.707463   -1.090008   -0.310581
     26          6           0       -2.734555    0.004902    0.158256
     27          6           0       -2.034067    0.638223   -1.069708
     28          7           0       -1.362159    1.907360   -0.773264
     29          6           0       -3.550964    1.085892    0.902373
     30          8           0       -2.750820    2.009777    1.570872
     31          6           0       -1.719134   -0.593205    1.147895
     32          8           0       -0.915071   -1.611604    0.591966
     33          1           0       -2.740515   -1.919398   -1.940868
     34          1           0       -3.635698   -3.000750   -1.093155
     35          1           0       -4.202321   -1.519872    0.577810
     36          1           0       -4.506621   -0.633815   -0.932348
     37          1           0       -2.802737    0.790297   -1.852701
     38          1           0       -1.301614   -0.077546   -1.481947
     39          1           0       -1.769236    2.670095   -1.310740
     40          1           0       -0.365010    1.870571   -1.022344
     41          1           0       -4.202108    0.603982    1.655498
     42          1           0       -4.229099    1.577474    0.165742
     43          1           0       -2.054611    2.260250    0.918805
     44          1           0       -2.273754   -0.979216    2.028509
     45          1           0       -1.053618    0.199533    1.517788
     46          1           0       -1.522978   -2.172714    0.049224
 ---------------------------------------------------------------------

 SCF Done:  E(RwB97XD) =  -916.790966890     a.u. after    1 cycles

 The electronic state is 1-A.
 Alpha  occ. eigenvalues --  -19.25116 -19.22944 -19.21867 -19.20813 -14.46302
 Alpha  occ. eigenvalues --  -14.43070 -14.42621 -14.42548 -10.34127 -10.33516
 Alpha  occ. eigenvalues --  -10.33258 -10.32786 -10.32770 -10.31900 -10.31409
 Alpha  occ. eigenvalues --  -10.31293 -10.30998 -10.29663  -1.11439  -1.09631
 Alpha  occ. eigenvalues --   -1.09203  -1.07988  -1.01143  -0.98704  -0.97877
 Alpha  occ. eigenvalues --   -0.97081  -0.88953  -0.87528  -0.76707  -0.76245
 Alpha  occ. eigenvalues --   -0.75258  -0.74596  -0.74477  -0.73054  -0.65804
 Alpha  occ. eigenvalues --   -0.64082  -0.62311  -0.62035  -0.61041  -0.60165
 Alpha  occ. eigenvalues --   -0.59026  -0.57175  -0.56819  -0.56261  -0.55837
 Alpha  occ. eigenvalues --   -0.55390  -0.54961  -0.54141  -0.52547  -0.51606
 Alpha  occ. eigenvalues --   -0.50826  -0.50696  -0.49325  -0.48789  -0.48018
 Alpha  occ. eigenvalues --   -0.47418  -0.47167  -0.46683  -0.45316  -0.44712
 Alpha  occ. eigenvalues --   -0.44052  -0.42884  -0.42229  -0.40953  -0.40546
 Alpha  occ. eigenvalues --   -0.39662  -0.36253  -0.35039  -0.34490  -0.33279
 Alpha  occ. eigenvalues --   -0.32931  -0.32389  -0.31712  -0.31413
 Alpha virt. eigenvalues --    0.10387   0.12597   0.13156   0.14085   0.15305
 Alpha virt. eigenvalues --    0.15494   0.16433   0.17389   0.18397   0.18649
 Alpha virt. eigenvalues --    0.19416   0.20289   0.20969   0.21411   0.21604

 Mulliken charges:
               1
     1  N   -0.600226
     2  C   -0.050656
     3  C   -0.369787
     4  C   -0.088976
     5  N   -0.554141
     6  C    0.121320
     7  O   -0.512284
     8  C    0.109006
     9  O   -0.524585
    10  H    0.279718
    11  H    0.232732
    12  H    0.098626
    13  H    0.115979
    14  H    0.106339
    15  H    0.101527
    16  H    0.264639
    17  H    0.241652
    18  H    0.074298
    19  H    0.085463
    20  H    0.325905
    21  H    0.085301
    22  H    0.094158
    23  H    0.342495
    24  N   -0.550359
    25  C   -0.046407
    26  C   -0.362551
    27  C   -0.067562
    28  N   -0.570382
    29  C    0.104770
    30  O   -0.499528
    31  C    0.090347
    32  O   -0.523708
    33  H    0.246844
    34  H    0.246248
    35  H    0.110013
    36  H    0.104290
    37  H    0.093668
    38  H    0.099357
    39  H    0.237700
    40  H    0.280713
    41  H    0.089457
    42  H    0.073618
    43  H    0.322637
    44  H    0.087513
    45  H    0.117322
    46  H    0.337495
 Sum of Mulliken charges =  -0.00000

 Dipole moment (field-independent basis, Debye):
    X=             -5.2986    Y=             -2.9155    Z=             -3.7740  Tot=              7.1287
  Exact polarizability: 167.233   3.528 138.590  -1.914   1.702 135.395
 Approx polarizability: 160.126   1.794 155.471  -1.313   1.782 152.654
   1 Symmetry operations used in ECPInt.
 ECPInt:  NShTT=   13530 NPrTT=   54274 LenC2=   12857 LenP2D=   36097.
 LDataN:  DoStor=T MaxTD1= 6 Len=  172
 Calling FoFJK, ICntrl=    100127 FMM=F ISym2X=0 I1Cent= 0 IOpClX= 0 NMat=1 NMatS=1 NMatT=0.
 Full mass-weighted force constant matrix:
 Low frequencies ---   -0.0012   -0.0003    0.0005    3.0322    5.1826    9.7249
 Low frequencies ---   34.1996   45.5483   70.2898
 Diagonal vibrational polarizability:

                      1                      2                      3
                      A                      A                      A
 Frequencies --     34.1924                45.5418                70.2861
 Red. masses --      5.1139                 4.1100                 5.3273
 Frc consts  --      0.0035                 0.0050                 0.0155
 IR Inten    --      1.0146                 2.3099                 1.2744

                      4                      5                      6
                      A                      A                      A
 Frequencies --     91.4969                99.9889               109.0215
 Red. masses --      3.7712                 4.7195                 4.9306
 Frc consts  --      0.0186                 0.0278                 0.0345
 IR Inten    --      1.8440                 1.7983                 0.6252

                      7                      8                      9
                      A                      A                      A
 Frequencies --    145.7378               152.8935               158.1923
 Red. masses --      3.4475                 3.2446                 3.0127
 Frc consts  --      0.0431                 0.0447                 0.0444
 IR Inten    --      5.8368                 8.6525                 5.7383

                     10                     11                     12
                      A                      A                      A
 Frequencies --    177.2755               199.8914               211.5997
 Red. masses --      3.7504                 2.9364                 3.0454
 Frc consts  --      0.0694                 0.0691                 0.0803
 IR Inten    --     15.7933                 1.2517                 4.1802

                     13                     14                     15
                      A                      A                      A
 Frequencies --    221.4389               223.7543               229.4349
 Red. masses --      2.5002                 2.6262                 3.1869
 Frc consts  --      0.0722                 0.0775                 0.0988
 IR Inten    --      1.9475                 7.5228                 3.9481

                     16                     17                     18
                      A                      A                      A
 Frequencies --    244.7253               288.2814               300.6772
 Red. masses --      3.0267                 3.4052                 2.4660
 Frc consts  --      0.1068                 0.1667                 0.1314
 IR Inten    --     13.2850                 1.4435                 3.4134

                     19                     20                     21
                      A                      A                      A
 Frequencies --    314.8106               321.2118               327.1323
 Red. masses --      3.7769                 2.6887                 1.8909
 Frc consts  --      0.2205                 0.1634                 0.1192
 IR Inten    --      4.7034                 0.2984                 3.6934

                     22                     23                     24
                      A                      A                      A
 Frequencies --    349.5670               361.5593               364.5259
 Red. masses --      1.3896                 1.1479                 1.8438
 Frc consts  --      0.1000                 0.0884                 0.1443
 IR Inten    --     23.1968                10.2737                14.6523

                     25                     26                     27
                      A                      A                      A
 Frequencies --    373.7799               382.6588               396.9328
 Red. masses --      1.9979                 3.5710                 2.3794
 Frc consts  --      0.1645                 0.3081                 0.2209
 IR Inten    --      0.4862                 1.1783                 3.4315

                     28                     29                     30
                      A                      A                      A
 Frequencies --    421.9108               428.7591               437.4787
 Red. masses --      2.7420                 3.8247                 2.4928
 Frc consts  --      0.2876                 0.4143                 0.2811
 IR Inten    --      6.2164                 5.0951                 0.6370

                     31                     32                     33
                      A                      A                      A
 Frequencies --    454.0536               469.5291               522.5201
 Red. masses --      2.6494                 1.3438                 3.4128
 Frc consts  --      0.3218                 0.1745                 0.5490
 IR Inten    --      3.7059                17.4318                 8.3201

                     34                     35                     36
                      A                      A                      A
 Frequencies --    525.9572               646.3251               660.4024
 Red. masses --      3.4395                 2.8897                 2.9436
 Frc consts  --      0.5606                 0.7112                 0.7564
 IR Inten    --      7.5809                 3.5315                 0.1570

                     37                     38                     39
                      A                      A                      A
 Frequencies --    749.2015               764.2815               821.9130
 Red. masses --      2.6293                 2.6661                 1.1288
 Frc consts  --      0.8695                 0.9176                 0.4493
 IR Inten    --      4.0239                 3.6894               186.4973

                     40                     41                     42
                      A                      A                      A
 Frequencies --    865.9381               874.6463               877.7210
 Red. masses --      1.1643                 1.6867                 1.1962
 Frc consts  --      0.5144                 0.7602                 0.5430
 IR Inten    --    148.6921                34.0947               122.5196

                     43                     44                     45
                      A                      A                      A
 Frequencies --    889.8305               901.6309               915.0242
 Red. masses --      1.7360                 1.2870                 1.4045
 Frc consts  --      0.8099                 0.6164                 0.6928
 IR Inten    --     37.7810                 8.1285                67.8265

                     46                     47                     48
                      A                      A                      A
 Frequencies --    933.5172               938.0298               958.1087
 Red. masses --      1.3487                 1.2947                 1.5083
 Frc consts  --      0.6925                 0.6712                 0.8158
 IR Inten    --     18.0664               119.9791                18.0085

                     49                     50                     51
                      A                      A                      A
 Frequencies --    968.2672               992.3522              1013.6892
 Red. masses --      1.3518                 1.4491                 1.5549
 Frc consts  --      0.7467                 0.8407                 0.9413
 IR Inten    --     56.2073                33.2743               116.8291

                     52                     53                     54
                      A                      A                      A
 Frequencies --   1022.9925              1029.6636              1063.2321
 Red. masses --      1.8700                 1.5606                 1.4223
 Frc consts  --      1.1530                 0.9748                 0.9473
 IR Inten    --     91.3821                65.0629                 3.9736

                     55                     56                     57
                      A                      A                      A
 Frequencies --   1074.9753              1097.2576              1106.8862
 Red. masses --      3.6641                 3.6733                 2.4409
 Frc consts  --      2.4947                 2.6057                 1.7620
 IR Inten    --     14.8845                14.0874                44.2334

                     58                     59                     60
                      A                      A                      A
 Frequencies --   1116.9440              1119.0318              1128.5766
 Red. masses --      2.3985                 2.7338                 3.0310
 Frc consts  --      1.7630                 2.0170                 2.2745
 IR Inten    --     14.2777                 4.9430                 9.3350

                     61                     62                     63
                      A                      A                      A
 Frequencies --   1149.9715              1153.9977              1164.4851
 Red. masses --      2.1262                 1.9245                 1.9806
 Frc consts  --      1.6567                 1.5100                 1.5824
 IR Inten    --     35.2292                70.0992                17.3432

                     64                     65                     66
                      A                      A                      A
 Frequencies --   1168.4678              1175.6534              1180.1604
 Red. masses --      1.9062                 2.8489                 3.1704
 Frc consts  --      1.5334                 2.3200                 2.6016
 IR Inten    --     13.4992                67.2341                42.9629

                     67                     68                     69
                      A                      A                      A
 Frequencies --   1201.4989              1208.1766              1245.0458
 Red. masses --      1.8550                 2.2735                 1.3471
 Frc consts  --      1.5778                 1.9553                 1.2303
 IR Inten    --     27.2589               138.9136                 4.3735

                     70                     71                     72
                      A                      A                      A
 Frequencies --   1245.8684              1263.5382              1270.9415
 Red. masses --      1.3292                 1.1430                 1.0770
 Frc consts  --      1.2156                 1.0751                 1.0250
 IR Inten    --      7.3099                 5.8124                 2.9267

                     73                     74                     75
                      A                      A                      A
 Frequencies --   1307.3676              1309.0804              1320.0990
 Red. masses --      1.4535                 1.8546                 1.4811
 Frc consts  --      1.4637                 1.8726                 1.5208
 IR Inten    --      7.4823                 0.5750                10.0494

                     76                     77                     78
                      A                      A                      A
 Frequencies --   1343.4488              1363.5318              1369.4000
 Red. masses --      1.3478                 1.2223                 1.3053
 Frc consts  --      1.4333                 1.3390                 1.4422
 IR Inten    --      1.3890                 3.9660                 1.8893

                     79                     80                     81
                      A                      A                      A
 Frequencies --   1384.1372              1391.5824              1397.8756
 Red. masses --      1.2631                 1.2728                 1.3158
 Frc consts  --      1.4258                 1.4522                 1.5149
 IR Inten    --     21.1214                 1.8383                 0.8918

                     82                     83                     84
                      A                      A                      A
 Frequencies --   1403.2447              1412.5608              1414.0180
 Red. masses --      1.2686                 1.3797                 1.3320
 Frc consts  --      1.4718                 1.6220                 1.5692
 IR Inten    --      3.6404                 1.6472                 1.9868

                     85                     86                     87
                      A                      A                      A
 Frequencies --   1439.3181              1442.2682              1449.0139
 Red. masses --      1.5130                 1.5204                 1.4176
 Frc consts  --      1.8467                 1.8634                 1.7537
 IR Inten    --     17.0890                 8.0129                10.6881

                     88                     89                     90
                      A                      A                      A
 Frequencies --   1463.3821              1491.5015              1497.8493
 Red. masses --      1.4559                 1.0979                 1.0881
 Frc consts  --      1.8370                 1.4389                 1.4384
 IR Inten    --     15.3717                 2.2493                 1.6409

                     91                     92                     93
                      A                      A                      A
 Frequencies --   1503.0181              1505.5282              1512.8450
 Red. masses --      1.0897                 1.0850                 1.0978
 Frc consts  --      1.4504                 1.4490                 1.4803
 IR Inten    --      1.8495                 1.0737                 3.5080

                     94                     95                     96
                      A                      A                      A
 Frequencies --   1519.8728              1522.1869              1525.7866
 Red. masses --      1.0886                 1.0935                 1.0779
 Frc consts  --      1.4816                 1.4928                 1.4784
 IR Inten    --      3.7015                 4.2895                 3.1127

                     97                     98                     99
                      A                      A                      A
 Frequencies --   1530.0303              1535.4007              1540.5564
 Red. masses --      1.1607                 1.1858                 1.1707
 Frc consts  --      1.6010                 1.6470                 1.6370
 IR Inten    --    127.5848               103.4466               143.7364

                    100                    101                    102
                      A                      A                      A
 Frequencies --   1578.5651              1669.3856              1686.7811
 Red. masses --      1.1474                 1.0884                 1.0834
 Frc consts  --      1.6845                 1.7872                 1.8161
 IR Inten    --    101.3484                45.6360                19.5208

                    103                    104                    105
                      A                      A                      A
 Frequencies --   1705.6614              1712.0862              2937.5196
 Red. masses --      1.0783                 1.0777                 1.0721
 Frc consts  --      1.8483                 1.8612                 5.4505
 IR Inten    --     57.5067                 8.9390                81.8915

                    106                    107                    108
                      A                      A                      A
 Frequencies --   2947.5854              2982.0639              2988.7395
 Red. masses --      1.0712                 1.0690                 1.0701
 Frc consts  --      5.4833                 5.6010                 5.6319
 IR Inten    --     79.5783               108.5320                65.8438

                    109                    110                    111
                      A                      A                      A
 Frequencies --   2999.6182              3015.2480              3038.0540
 Red. masses --      1.0747                 1.0684                 1.0615
 Frc consts  --      5.6975                 5.7231                 5.7726
 IR Inten    --     63.9258                49.8755                35.8850

                    112                    113                    114
                      A                      A                      A
 Frequencies --   3052.4205              3052.8549              3058.1109
 Red. masses --      1.0939                 1.0643                 1.0940
 Frc consts  --      6.0050                 5.8441                 6.0281
 IR Inten    --     71.3130                11.1186                51.8132

                    115                    116                    117
                      A                      A                      A
 Frequencies --   3072.5726              3085.3142              3090.4669
 Red. masses --      1.0987                 1.0976                 1.1077
 Frc consts  --      6.1112                 6.1557                 6.2331
 IR Inten    --     65.5815                30.9039                29.2461

                    118                    119                    120
                      A                      A                      A
 Frequencies --   3098.8007              3110.8087              3154.1976
 Red. masses --      1.0995                 1.1035                 1.0927
 Frc consts  --      6.2206                 6.2920                 6.4053
 IR Inten    --     14.0885                32.2056                23.5123

                    121                    122                    123
                      A                      A                      A
 Frequencies --   3246.0545              3348.4347              3392.7769
 Red. masses --      1.0689                 1.0674                 1.0659
 Frc consts  --      6.6360                 7.0511                 7.2292
 IR Inten    --    419.8224               573.0635               670.5823

                    124                    125                    126
                      A                      A                      A
 Frequencies --   3419.3121              3421.0149              3432.3800
 Red. masses --      1.0621                 1.0650                 1.0661
 Frc consts  --      7.3162                 7.3439                 7.4002
 IR Inten    --     50.3720                78.3198               548.2556

                    127                    128                    129
                      A                      A                      A
 Frequencies --   3487.6350              3501.8218              3558.4103
 Red. masses --      1.0545                 1.0521                 1.0850
 Frc consts  --      7.5568                 7.6015                 8.0945
 IR Inten    --     10.0690                 1.6485                37.0922

                    130                    131                    132
                      A                      A                      A
 Frequencies --   3566.7293              3572.6353              3583.9598
 Red. masses --      1.0825                 1.0909                 1.0935
 Frc consts  --      8.1135                 8.2036                 8.2756
 IR Inten    --     36.3418                20.9233                 9.2068

                           ! Non-Optimized Parameters !
 Normal termination of Gaussian 16 at Tue Aug  9 20:51:27 2022.
