 Gaussian 16, Revision B.01,
 Gaussian 16:  ES64L-G16RevB.01 20-Dec-2017

 ----------------------------------------------------------------------
 #T wB97XD/def2svpp opt=tight freq int(grid=ultrafine) scf=(verytight,q
 c)
 ----------------------------------------------------------------------
 -----
 dimer
 -----
 Symbolic Z-matrix:
 Charge =  0 Multiplicity = 1

 SCF Done:  E(RwB97XD) =  -1112.67631302     a.u. after    7 cycles
 SCF Done:  E(RwB97XD) =  -1112.68092091     a.u. after    7 cycles
 SCF Done:  E(RwB97XD) =  -1112.68111720     a.u. after    8 cycles
 SCF Done:  E(RwB97XD) =  -1112.68120902     a.u. after    7 cycles
 SCF Done:  E(RwB97XD) =  -1112.68125904     a.u. after    7 cycles
 SCF Done:  E(RwB97XD) =  -1112.68129165     a.u. after    3 cycles
 SCF Done:  E(RwB97XD) =  -1112.68132089     a.u. after    4 cycles
 SCF Done:  E(RwB97XD) =  -1112.68133836     a.u. after    3 cycles
 SCF Done:  E(RwB97XD) =  -1112.68134890     a.u. after    3 cycles
 SCF Done:  E(RwB97XD) =  -1112.68135754     a.u. after    3 cycles
 SCF Done:  E(RwB97XD) =  -1112.68137698     a.u. after    2 cycles
 SCF Done:  E(RwB97XD) =  -1112.68137698     a.u. after    2 cycles
 SCF Done:  E(RwB97XD) =  -1112.68137698     a.u. after    2 cycles
 SCF Done:  E(RwB97XD) =  -1112.68137698     a.u. after    2 cycles
 SCF Done:  E(RwB97XD) =  -1112.68137698     a.u. after    2 cycles
 SCF Done:  E(RwB97XD) =  -1112.68137697     a.u. after    2 cycles
 SCF Done:  E(RwB97XD) =  -1112.68137697     a.u. after    2 cycles
 SCF Done:  E(RwB97XD) =  -1112.68137697     a.u. after    2 cycles
 SCF Done:  E(RwB97XD) =  -1112.68137697     a.u. after    2 cycles
 Optimization completed.
    -- Stationary point found.

 1\1\GINC-C053\FOpt\RwB97XD\def2SVPP\C8H20S2\PETERCHAO1\09-Aug-2022\0\\
 #T wB97XD/def2svpp opt=tight freq int(grid=ultrafine) scf=(verytight,q
 c)\\dimer\\0,1\C,-2.8593463168,1.3548238398,-0.7975257315\C,-2.5775940
 052,0.1806123946,0.1436230563\C,-1.8274329238,0.661568473,1.3883474534
 \C,-3.8848856322,-0.5106257668,0.5442735617\S,-1.5874682261,-1.1064277
 902,-0.7484701332\H,-3.4865968141,2.1095255411,-0.286870365\H,-3.38834
 59796,1.0181566601,-1.7047984101\H,-1.9211090672,1.8471337415,-1.10747
 83122\H,-2.4376747529,1.4058894636,1.9339112122\H,-0.8716928372,1.1420

 Normal termination of Gaussian 16 at Tue Aug  9 16:43:47 2022.

 ---------------------------------------------------------------------
 #T Geom=AllCheck Guess=TCheck SCRF=Check GenChk RwB97XD/def2SVPP Freq
 ---------------------------------------------------------------------
 Structure from the checkpoint file:  "/scratch/user/peterchao1/peterchao1/6113324_1660079103000000798945007/Gau-109726.chk"
 -----
 dimer
 -----
 Charge =  0 Multiplicity = 1

                         Standard orientation:
 ---------------------------------------------------------------------
 Center     Atomic      Atomic             Coordinates (Angstroms)
 Number     Number       Type             X           Y           Z
 ---------------------------------------------------------------------
      1          6           0       -2.881824    1.327886   -0.765903
      2          6           0       -2.587448    0.144629    0.159929
      3          6           0       -1.839198    0.616838    1.409145
      4          6           0       -3.887555   -0.563516    0.554386
      5         16           0       -1.587408   -1.122027   -0.750099
      6          1           0       -3.514911    2.070364   -0.244641
      7          1           0       -3.409558    0.997757   -1.676309
      8          1           0       -1.948754    1.832611   -1.071456
      9          1           0       -2.455112    1.348655    1.965150
     10          1           0       -0.888440    1.109389    1.141978
     11          1           0       -1.614039   -0.228084    2.081515
     12          1           0       -4.540910    0.136486    1.105772
     13          1           0       -3.688236   -1.431209    1.207140
     14          1           0       -4.436961   -0.917322   -0.335154
     15          1           0       -0.541372   -0.306583   -1.040964
     16          6           0        3.971836    0.278752    0.536390
     17          6           0        2.563037   -0.185634    0.158910
     18          6           0        2.622799   -1.337578   -0.846836
     19          6           0        1.782174   -0.611516    1.406854
     20         16           0        1.617334    1.240140   -0.558133
     21          1           0        4.534126   -0.554903    0.996609
     22          1           0        3.935477    1.113234    1.256287
     23          1           0        4.534571    0.615701   -0.351973
     24          1           0        3.173567   -2.189984   -0.407991
     25          1           0        3.146901   -1.038744   -1.771734
     26          1           0        1.612336   -1.686673   -1.116151
     27          1           0        2.315685   -1.439070    1.907765
     28          1           0        0.770572   -0.965365    1.143394
     29          1           0        1.689529    0.219552    2.127846
     30          1           0        2.383787    1.405218   -1.662624
 ---------------------------------------------------------------------

 SCF Done:  E(RwB97XD) =  -1112.68137697     a.u. after    1 cycles

 The electronic state is 1-A.
 Alpha  occ. eigenvalues --  -89.00221 -88.98167 -10.34630 -10.33453 -10.29241
 Alpha  occ. eigenvalues --  -10.29199 -10.28976 -10.28541 -10.28201 -10.28188
 Alpha  occ. eigenvalues --   -8.05476  -8.03473  -6.00933  -6.00556  -5.99885
 Alpha  occ. eigenvalues --   -5.98913  -5.98556  -5.97895  -0.93393  -0.92232
 Alpha  occ. eigenvalues --   -0.80531  -0.78957  -0.78486  -0.78458  -0.77723
 Alpha  occ. eigenvalues --   -0.77436  -0.63433  -0.62301  -0.55739  -0.54723
 Alpha  occ. eigenvalues --   -0.53725  -0.53618  -0.52822  -0.52735  -0.49211
 Alpha  occ. eigenvalues --   -0.48347  -0.48113  -0.47312  -0.45517  -0.45253
 Alpha  occ. eigenvalues --   -0.44679  -0.44006  -0.42836  -0.42531  -0.41844
 Alpha  occ. eigenvalues --   -0.41596  -0.38984  -0.37926  -0.31825  -0.30209
 Alpha virt. eigenvalues --    0.08827   0.11143   0.12874   0.13823   0.14868
 Alpha virt. eigenvalues --    0.16008   0.18343   0.19207   0.19322   0.19664
 Alpha virt. eigenvalues --    0.20101   0.20304   0.20887   0.21565   0.22044

 Mulliken charges:
               1
     1  C   -0.237440
     2  C   -0.363771
     3  C   -0.246741
     4  C   -0.255824
     5  S   -0.191613
     6  H    0.111310
     7  H    0.125358
     8  H    0.122631
     9  H    0.112524
    10  H    0.132319
    11  H    0.129300
    12  H    0.119594
    13  H    0.128250
    14  H    0.129909
    15  H    0.174471
    16  C   -0.228826
    17  C   -0.365846
    18  C   -0.239798
    19  C   -0.281278
    20  S   -0.154491
    21  H    0.117017
    22  H    0.129183
    23  H    0.114594
    24  H    0.118758
    25  H    0.115200
    26  H    0.133737
    27  H    0.123876
    28  H    0.145019
    29  H    0.131404
    30  H    0.151178
 Sum of Mulliken charges =  -0.00000

 Dipole moment (field-independent basis, Debye):
    X=              1.4567    Y=              0.5384    Z=              0.4841  Tot=              1.6267
  Exact polarizability: 141.709  -5.574 112.997  -2.838  -1.594 110.226
 Approx polarizability: 134.466  -5.218 130.301  -4.393  -1.574 124.622
   1 Symmetry operations used in ECPInt.
 ECPInt:  NShTT=    5460 NPrTT=   22788 LenC2=    5272 LenP2D=   15769.
 LDataN:  DoStor=T MaxTD1= 6 Len=  172
 Calling FoFJK, ICntrl=    100127 FMM=F ISym2X=0 I1Cent= 0 IOpClX= 0 NMat=1 NMatS=1 NMatT=0.
 Full mass-weighted force constant matrix:
 Low frequencies ---   -4.6082   -0.0032   -0.0030   -0.0018    2.3962    6.6742
 Low frequencies ---   27.3114   33.8001   39.9874
 Diagonal vibrational polarizability:

                      1                      2                      3
                      A                      A                      A
 Frequencies --     26.9918                33.7369                39.9792
 Red. masses --      3.3259                 2.9668                 3.6673
 Frc consts  --      0.0014                 0.0020                 0.0035
 IR Inten    --      1.2805                 0.3823                 0.8518

                      4                      5                      6
                      A                      A                      A
 Frequencies --     62.1590                73.8550                90.4157
 Red. masses --      4.8203                 4.3903                 5.5551
 Frc consts  --      0.0110                 0.0141                 0.0268
 IR Inten    --      0.4290                 1.4075                 0.6391

                      7                      8                      9
                      A                      A                      A
 Frequencies --    218.4272               242.8500               267.1402
 Red. masses --      1.0293                 1.0178                 1.0616
 Frc consts  --      0.0289                 0.0354                 0.0446
 IR Inten    --      5.8803                 0.4764                 3.3958

                     10                     11                     12
                      A                      A                      A
 Frequencies --    291.6235               295.2091               298.7771
 Red. masses --      1.6690                 1.2335                 1.9029
 Frc consts  --      0.0836                 0.0633                 0.1001
 IR Inten    --      0.7428                 0.0625                 0.3823

                     13                     14                     15
                      A                      A                      A
 Frequencies --    306.9147               309.2245               311.5874
 Red. masses --      1.3839                 1.7714                 2.5236
 Frc consts  --      0.0768                 0.0998                 0.1444
 IR Inten    --      0.3569                 0.0330                 1.1843

                     16                     17                     18
                      A                      A                      A
 Frequencies --    319.9067               340.6899               379.5229
 Red. masses --      1.1962                 1.2342                 2.9876
 Frc consts  --      0.0721                 0.0844                 0.2535
 IR Inten    --      0.8093                 0.3096                 3.0283

                     19                     20                     21
                      A                      A                      A
 Frequencies --    384.8555               393.5680               408.2891
 Red. masses --      2.8218                 1.1634                 2.2786
 Frc consts  --      0.2462                 0.1062                 0.2238
 IR Inten    --      0.0887                33.1398                 0.6515

                     22                     23                     24
                      A                      A                      A
 Frequencies --    411.4226               415.8512               421.8870
 Red. masses --      2.2810                 2.2724                 2.1021
 Frc consts  --      0.2275                 0.2315                 0.2204
 IR Inten    --      0.3896                 4.5883                 5.8941

                     25                     26                     27
                      A                      A                      A
 Frequencies --    603.3859               608.0248               846.9371
 Red. masses --      3.4049                 3.4610                 2.6050
 Frc consts  --      0.7304                 0.7539                 1.1009
 IR Inten    --      5.2276                 3.9311                 1.4443

                     28                     29                     30
                      A                      A                      A
 Frequencies --    849.6184               893.6876               922.8062
 Red. masses --      2.6233                 1.1559                 1.1558
 Frc consts  --      1.1157                 0.5439                 0.5799
 IR Inten    --      0.8162                 6.9641                 2.2557

                     31                     32                     33
                      A                      A                      A
 Frequencies --    954.1584               955.8496               962.1633
 Red. masses --      1.5781                 1.5576                 1.5320
 Frc consts  --      0.8465                 0.8385                 0.8356
 IR Inten    --      0.4244                 0.7538                 1.1710

                     34                     35                     36
                      A                      A                      A
 Frequencies --    962.5504               978.8468               981.9363
 Red. masses --      1.5461                 1.2019                 1.2070
 Frc consts  --      0.8440                 0.6785                 0.6857
 IR Inten    --      1.5936                 0.0067                 0.1666

                     37                     38                     39
                      A                      A                      A
 Frequencies --   1058.8314              1060.2617              1070.2521
 Red. masses --      1.3997                 1.4052                 1.3421
 Frc consts  --      0.9245                 0.9307                 0.9058
 IR Inten    --      0.2323                 0.2544                 2.4754

                     40                     41                     42
                      A                      A                      A
 Frequencies --   1072.0116              1213.3896              1215.6588
 Red. masses --      1.3312                 2.0364                 2.0718
 Frc consts  --      0.9014                 1.7665                 1.8039
 IR Inten    --      1.9425                36.6496                49.7662

                     43                     44                     45
                      A                      A                      A
 Frequencies --   1264.1905              1266.9024              1280.2444
 Red. masses --      2.6072                 2.5860                 2.6198
 Frc consts  --      2.4550                 2.4454                 2.5299
 IR Inten    --      2.8884                 5.6581                 0.6429

                     46                     47                     48
                      A                      A                      A
 Frequencies --   1281.4670              1408.6578              1409.4834
 Red. masses --      2.5463                 1.2998                 1.2958
 Frc consts  --      2.4636                 1.5196                 1.5167
 IR Inten    --      1.7018                12.4918                14.5301

                     49                     50                     51
                      A                      A                      A
 Frequencies --   1411.2177              1412.9492              1434.1317
 Red. masses --      1.2905                 1.2912                 1.2331
 Frc consts  --      1.5143                 1.5188                 1.4942
 IR Inten    --      9.7241                 9.7631                 4.1302

                     52                     53                     54
                      A                      A                      A
 Frequencies --   1437.7715              1469.0136              1471.5141
 Red. masses --      1.2290                 1.0450                 1.0445
 Frc consts  --      1.4968                 1.3287                 1.3326
 IR Inten    --      5.6131                 0.2546                 0.2022

                     55                     56                     57
                      A                      A                      A
 Frequencies --   1474.9998              1476.1719              1480.5633
 Red. masses --      1.0424                 1.0424                 1.0423
 Frc consts  --      1.3362                 1.3383                 1.3462
 IR Inten    --      0.5122                 1.9923                 0.7267

                     58                     59                     60
                      A                      A                      A
 Frequencies --   1486.7352              1495.0059              1495.9435
 Red. masses --      1.0453                 1.0601                 1.0596
 Frc consts  --      1.3613                 1.3961                 1.3971
 IR Inten    --      0.6331                 7.8516                 7.1629

                     61                     62                     63
                      A                      A                      A
 Frequencies --   1496.9776              1500.3721              1508.5128
 Red. masses --      1.0588                 1.0583                 1.0507
 Frc consts  --      1.3979                 1.4037                 1.4087
 IR Inten    --     14.0756                10.6411                16.9925

                     64                     65                     66
                      A                      A                      A
 Frequencies --   1521.4533              2630.7064              2688.6463
 Red. masses --      1.0488                 1.0383                 1.0383
 Frc consts  --      1.4305                 4.2337                 4.4223
 IR Inten    --      2.2321                37.1299                 8.7637

                     67                     68                     69
                      A                      A                      A
 Frequencies --   3022.3353              3025.0318              3025.1771
 Red. masses --      1.0384                 1.0380                 1.0381
 Frc consts  --      5.5888                 5.5965                 5.5973
 IR Inten    --     18.6891                17.2721                20.9274

                     70                     71                     72
                      A                      A                      A
 Frequencies --   3027.8548              3030.4494              3033.0888
 Red. masses --      1.0378                 1.0379                 1.0380
 Frc consts  --      5.6056                 5.6157                 5.6261
 IR Inten    --     26.8316                30.2663                20.3165

                     73                     74                     75
                      A                      A                      A
 Frequencies --   3112.3062              3113.0075              3115.4322
 Red. masses --      1.1028                 1.1042                 1.1027
 Frc consts  --      6.2937                 6.3049                 6.3057
 IR Inten    --      1.5660                 0.2519                29.1744

                     76                     77                     78
                      A                      A                      A
 Frequencies --   3116.8665              3122.5917              3124.2085
 Red. masses --      1.1036                 1.1041                 1.1043
 Frc consts  --      6.3169                 6.3426                 6.3506
 IR Inten    --     28.3569                27.4364                15.1032

                     79                     80                     81
                      A                      A                      A
 Frequencies --   3130.6304              3136.4691              3137.5955
 Red. masses --      1.1058                 1.1056                 1.1056
 Frc consts  --      6.3855                 6.4081                 6.4125
 IR Inten    --      8.6427                12.6344                 2.3769

                     82                     83                     84
                      A                      A                      A
 Frequencies --   3138.3232              3139.1679              3141.8383
 Red. masses --      1.1054                 1.1054                 1.1047
 Frc consts  --      6.4143                 6.4179                 6.4247
 IR Inten    --     16.5157                13.1346                 9.9221

                           ! Non-Optimized Parameters !

 1\1\GINC-C053\Freq\RwB97XD\def2SVPP\C8H20S2\PETERCHAO1\09-Aug-2022\0\\
 #T Geom=AllCheck Guess=TCheck SCRF=Check GenChk RwB97XD/def2SVPP Freq\
 \dimer\\0,1\C,-2.8593463168,1.3548238398,-0.7975257315\C,-2.5775940052
 ,0.1806123946,0.1436230563\C,-1.8274329238,0.661568473,1.3883474534\C,
 -3.8848856322,-0.5106257668,0.5442735617\S,-1.5874682261,-1.1064277902
 ,-0.7484701332\H,-3.4865968141,2.1095255411,-0.286870365\H,-3.38834597
 96,1.0181566601,-1.7047984101\H,-1.9211090672,1.8471337415,-1.10747831
 22\H,-2.4376747529,1.4058894636,1.9339112122\H,-0.8716928372,1.1420253

 Normal termination of Gaussian 16 at Tue Aug  9 16:48:31 2022.
