 Gaussian 16, Revision B.01,
 Gaussian 16:  ES64L-G16RevB.01 20-Dec-2017

 ----------------------------------------------------------------------
 #T wB97XD/def2svpp opt=tight freq int(grid=ultrafine) scf=(verytight,q
 c)
 ----------------------------------------------------------------------
 -----
 dimer
 -----
 Symbolic Z-matrix:
 Charge =  0 Multiplicity = 1

 SCF Done:  E(RwB97XD) =  -877.940640812     a.u. after    8 cycles
 SCF Done:  E(RwB97XD) =  -877.943385390     a.u. after   12 cycles
 SCF Done:  E(RwB97XD) =  -877.943545495     a.u. after    9 cycles
 SCF Done:  E(RwB97XD) =  -877.944924664     a.u. after    8 cycles
 SCF Done:  E(RwB97XD) =  -877.944599730     a.u. after    9 cycles
 SCF Done:  E(RwB97XD) =  -877.945125665     a.u. after    9 cycles
 SCF Done:  E(RwB97XD) =  -877.945160845     a.u. after    7 cycles
 SCF Done:  E(RwB97XD) =  -877.945289859     a.u. after    5 cycles
 SCF Done:  E(RwB97XD) =  -877.945314050     a.u. after    5 cycles
 SCF Done:  E(RwB97XD) =  -877.945322366     a.u. after    3 cycles
 SCF Done:  E(RwB97XD) =  -877.945328696     a.u. after    2 cycles
 SCF Done:  E(RwB97XD) =  -877.945328699     a.u. after    2 cycles
 SCF Done:  E(RwB97XD) =  -877.945328700     a.u. after    2 cycles
 SCF Done:  E(RwB97XD) =  -877.945328701     a.u. after    2 cycles
 SCF Done:  E(RwB97XD) =  -877.945328703     a.u. after    2 cycles
 SCF Done:  E(RwB97XD) =  -877.945328703     a.u. after    2 cycles
 SCF Done:  E(RwB97XD) =  -877.945328705     a.u. after    2 cycles
 SCF Done:  E(RwB97XD) =  -877.945328705     a.u. after    2 cycles
 SCF Done:  E(RwB97XD) =  -877.945328706     a.u. after    2 cycles
 Optimization completed.
    -- Stationary point found.
 Normal termination of Gaussian 16 at Tue Aug  9 17:19:18 2022.

 ---------------------------------------------------------------------
 #T Geom=AllCheck Guess=TCheck SCRF=Check GenChk RwB97XD/def2SVPP Freq
 ---------------------------------------------------------------------
 Structure from the checkpoint file:  "/scratch/user/peterchao1/peterchao1/6113318_1660079103000000485671477/Gau-229089.chk"
 -----
 dimer
 -----
 Charge =  0 Multiplicity = 1

                         Standard orientation:
 ---------------------------------------------------------------------
 Center     Atomic      Atomic             Coordinates (Angstroms)
 Number     Number       Type             X           Y           Z
 ---------------------------------------------------------------------
      1          7           0       -1.612252    0.302367   -1.186207
      2          6           0       -2.221771   -0.552157   -0.149186
      3          6           0       -3.738783   -0.639954   -0.398628
      4          8           0       -4.301523    0.639264   -0.522540
      5          6           0       -1.565435   -1.937253   -0.190603
      6          8           0       -0.186532   -1.908770    0.029365
      7          6           0       -1.976720    0.088044    1.233451
      8          8           0       -2.292829    1.458830    1.260698
      9          1           0       -2.282549    1.050235   -1.389713
     10          1           0       -1.506738   -0.224843   -2.055276
     11          1           0       -4.217154   -1.224470    0.415091
     12          1           0       -3.939224   -1.169819   -1.347788
     13          1           0       -3.960651    1.190077    0.207438
     14          1           0       -1.803645   -2.411654   -1.168665
     15          1           0       -2.013501   -2.576307    0.589980
     16          1           0        0.274949   -1.249844   -0.565208
     17          1           0       -0.931367   -0.084576    1.529297
     18          1           0       -2.618026   -0.418031    1.976392
     19          1           0       -1.492419    1.952585    0.996218
     20          7           0        1.612345   -0.302405   -1.186076
     21          6           0        2.221782    0.552152   -0.149034
     22          6           0        3.738812    0.639945   -0.398361
     23          8           0        4.301565   -0.639276   -0.522194
     24          6           0        1.565447    1.937246   -0.190543
     25          8           0        0.186527    1.908770    0.029321
     26          6           0        1.976626   -0.088008    1.233604
     27          8           0        2.292735   -1.458793    1.260916
     28          1           0        2.282657   -1.050279   -1.389504
     29          1           0        1.506901    0.224778   -2.055170
     30          1           0        4.217120    1.224485    0.415378
     31          1           0        3.939326    1.169783   -1.347521
     32          1           0        3.960638   -1.190069    0.207774
     33          1           0        1.803731    2.411617   -1.168601
     34          1           0        2.013454    2.576324    0.590055
     35          1           0       -0.274910    1.249827   -0.565267
     36          1           0        0.931251    0.084618    1.529366
     37          1           0        2.617875    0.418091    1.976579
     38          1           0        1.492346   -1.952558    0.996392
 ---------------------------------------------------------------------

 SCF Done:  E(RwB97XD) =  -877.945328706     a.u. after    1 cycles

 The electronic state is 1-A.
 Alpha  occ. eigenvalues --  -19.25663 -19.25662 -19.24882 -19.24882 -19.24768
 Alpha  occ. eigenvalues --  -19.24768 -14.45273 -14.45273 -10.35206 -10.35206
 Alpha  occ. eigenvalues --  -10.34336 -10.34336 -10.34131 -10.34131 -10.34024
 Alpha  occ. eigenvalues --  -10.34023  -1.13289  -1.12820  -1.11437  -1.11276
 Alpha  occ. eigenvalues --   -1.10546  -1.10543  -1.00519  -1.00214  -0.86850
 Alpha  occ. eigenvalues --   -0.85963  -0.77642  -0.77422  -0.76527  -0.76338
 Alpha  occ. eigenvalues --   -0.68104  -0.67918  -0.63963  -0.63850  -0.62863
 Alpha  occ. eigenvalues --   -0.62307  -0.60776  -0.59693  -0.58200  -0.56949
 Alpha  occ. eigenvalues --   -0.55354  -0.54680  -0.54105  -0.53419  -0.52726
 Alpha  occ. eigenvalues --   -0.52652  -0.51827  -0.51188  -0.49567  -0.49414
 Alpha  occ. eigenvalues --   -0.48584  -0.48056  -0.45975  -0.44599  -0.43355
 Alpha  occ. eigenvalues --   -0.42679  -0.40903  -0.39673  -0.37871  -0.37851
 Alpha  occ. eigenvalues --   -0.37028  -0.36929  -0.35552  -0.35272  -0.34377
 Alpha  occ. eigenvalues --   -0.33647
 Alpha virt. eigenvalues --    0.10922   0.12701   0.14399   0.15177   0.15327
 Alpha virt. eigenvalues --    0.16051   0.17322   0.17916   0.18758   0.19848
 Alpha virt. eigenvalues --    0.19926   0.20877   0.21578   0.21691   0.22470

 Mulliken charges:
               1
     1  N   -0.531415
     2  C   -0.252096
     3  C    0.103632
     4  O   -0.504767
     5  C    0.088778
     6  O   -0.549894
     7  C    0.025496
     8  O   -0.524361
     9  H    0.251656
    10  H    0.233537
    11  H    0.091465
    12  H    0.093466
    13  H    0.336640
    14  H    0.087220
    15  H    0.105517
    16  H    0.356088
    17  H    0.140276
    18  H    0.103912
    19  H    0.344852
    20  N   -0.531414
    21  C   -0.252096
    22  C    0.103631
    23  O   -0.504767
    24  C    0.088779
    25  O   -0.549894
    26  C    0.025496
    27  O   -0.524361
    28  H    0.251655
    29  H    0.233537
    30  H    0.091465
    31  H    0.093466
    32  H    0.336640
    33  H    0.087220
    34  H    0.105517
    35  H    0.356088
    36  H    0.140275
    37  H    0.103912
    38  H    0.344852
 Sum of Mulliken charges =  -0.00000

 Dipole moment (field-independent basis, Debye):
    X=              0.0001    Y=             -0.0000    Z=             -2.0105  Tot=              2.0105
  Exact polarizability: 139.661   9.708 114.920   0.001   0.000 106.017
 Approx polarizability: 131.083   4.271 128.447   0.000   0.000 121.070
   1 Symmetry operations used in ECPInt.
 ECPInt:  NShTT=    9870 NPrTT=   39614 LenC2=    9431 LenP2D=   27051.
 LDataN:  DoStor=T MaxTD1= 6 Len=  172
 Calling FoFJK, ICntrl=    100127 FMM=F ISym2X=0 I1Cent= 0 IOpClX= 0 NMat=1 NMatS=1 NMatT=0.
 Full mass-weighted force constant matrix:
 Low frequencies ---  -12.1439  -11.5587   -1.9840   -0.0012   -0.0007    0.0005
 Low frequencies ---   46.9884   74.9044   92.4937
 Diagonal vibrational polarizability:

                      1                      2                      3
                      A                      A                      A
 Frequencies --     46.9875                74.8651                92.4875
 Red. masses --      6.3655                 5.5397                 5.4239
 Frc consts  --      0.0083                 0.0183                 0.0273
 IR Inten    --      0.7894                 0.1507                 1.2169

                      4                      5                      6
                      A                      A                      A
 Frequencies --     99.3446               121.4479               146.4081
 Red. masses --      3.7418                 4.4409                 4.0827
 Frc consts  --      0.0218                 0.0386                 0.0516
 IR Inten    --      2.0130                22.1350                 2.2612

                      7                      8                      9
                      A                      A                      A
 Frequencies --    163.0757               181.2143               192.9644
 Red. masses --      2.6517                 3.3342                 4.9993
 Frc consts  --      0.0415                 0.0645                 0.1097
 IR Inten    --     14.4836                 5.7056                 6.6752

                     10                     11                     12
                      A                      A                      A
 Frequencies --    197.2842               200.6142               201.4628
 Red. masses --      4.5342                 4.3501                 5.5649
 Frc consts  --      0.1040                 0.1032                 0.1331
 IR Inten    --      0.0408                 6.2392                 0.4146

                     13                     14                     15
                      A                      A                      A
 Frequencies --    241.5459               266.4862               274.2611
 Red. masses --      3.5768                 3.6214                 3.6415
 Frc consts  --      0.1230                 0.1515                 0.1614
 IR Inten    --      0.0305                 1.4918                 6.8952

                     16                     17                     18
                      A                      A                      A
 Frequencies --    280.8763               349.1719               351.3701
 Red. masses --      3.4617                 4.1552                 1.4964
 Frc consts  --      0.1609                 0.2985                 0.1088
 IR Inten    --      9.8456                 2.6351                22.8710

                     19                     20                     21
                      A                      A                      A
 Frequencies --    355.8431               363.8934               397.5641
 Red. masses --      2.1716                 2.1464                 2.0758
 Frc consts  --      0.1620                 0.1675                 0.1933
 IR Inten    --      6.1644                 5.0855                19.4030

                     22                     23                     24
                      A                      A                      A
 Frequencies --    413.4027               422.5250               442.1838
 Red. masses --      3.5701                 2.8600                 2.6770
 Frc consts  --      0.3595                 0.3008                 0.3084
 IR Inten    --      0.5240                 0.7512                 0.7172

                     25                     26                     27
                      A                      A                      A
 Frequencies --    449.1140               453.8773               527.5786
 Red. masses --      2.4110                 1.6874                 2.7092
 Frc consts  --      0.2865                 0.2048                 0.4443
 IR Inten    --      7.6525                 9.9486                10.2023

                     28                     29                     30
                      A                      A                      A
 Frequencies --    542.8072               614.3568               614.7761
 Red. masses --      2.5898                 1.1841                 1.1592
 Frc consts  --      0.4496                 0.2633                 0.2581
 IR Inten    --     21.8373               334.5895                 3.7116

                     31                     32                     33
                      A                      A                      A
 Frequencies --    649.6592               666.6876               688.9081
 Red. masses --      1.5133                 1.3745                 1.5903
 Frc consts  --      0.3763                 0.3599                 0.4447
 IR Inten    --      1.4175               147.9615                43.5671

                     34                     35                     36
                      A                      A                      A
 Frequencies --    698.2186               807.4979               815.4802
 Red. masses --      1.9808                 3.5108                 3.5322
 Frc consts  --      0.5689                 1.3488                 1.3839
 IR Inten    --     34.0293                43.7811                26.7489

                     37                     38                     39
                      A                      A                      A
 Frequencies --    855.9708               901.0625               927.5677
 Red. masses --      1.2327                 1.2727                 1.9493
 Frc consts  --      0.5321                 0.6088                 0.9881
 IR Inten    --     71.0090                22.6031                18.1458

                     40                     41                     42
                      A                      A                      A
 Frequencies --    929.1760               950.9327               951.7219
 Red. masses --      1.8769                 1.7856                 1.7782
 Frc consts  --      0.9547                 0.9513                 0.9490
 IR Inten    --     10.2970                21.9774                 1.5062

                     43                     44                     45
                      A                      A                      A
 Frequencies --   1008.5676              1009.8665              1053.0447
 Red. masses --      1.4970                 1.4454                 1.3474
 Frc consts  --      0.8972                 0.8685                 0.8803
 IR Inten    --     25.9548                44.7123               228.2686

                     46                     47                     48
                      A                      A                      A
 Frequencies --   1071.7519              1073.6017              1083.4442
 Red. masses --      2.0647                 1.6237                 1.4891
 Frc consts  --      1.3973                 1.1026                 1.0299
 IR Inten    --     65.2945                 1.0262                32.7083

                     49                     50                     51
                      A                      A                      A
 Frequencies --   1132.6195              1135.0497              1149.5494
 Red. masses --      4.5650                 4.7336                 3.4313
 Frc consts  --      3.4504                 3.5931                 2.6715
 IR Inten    --    119.9009                 2.8093                 2.2717

                     52                     53                     54
                      A                      A                      A
 Frequencies --   1154.8933              1169.3323              1171.1651
 Red. masses --      3.3215                 2.0034                 3.4785
 Frc consts  --      2.6101                 1.6140                 2.8111
 IR Inten    --    421.3794                18.4181               154.1228

                     55                     56                     57
                      A                      A                      A
 Frequencies --   1177.6935              1196.4734              1216.0993
 Red. masses --      3.4013                 2.3225                 1.5041
 Frc consts  --      2.7794                 1.9589                 1.3105
 IR Inten    --      0.3294                11.7192                 0.0902

                     58                     59                     60
                      A                      A                      A
 Frequencies --   1217.8667              1265.6313              1267.1222
 Red. masses --      1.5499                 1.1008                 1.1492
 Frc consts  --      1.3544                 1.0389                 1.0871
 IR Inten    --     17.7063                 9.5221                 2.8002

                     61                     62                     63
                      A                      A                      A
 Frequencies --   1285.0024              1285.9718              1304.3067
 Red. masses --      1.3344                 1.3840                 1.6559
 Frc consts  --      1.2982                 1.3485                 1.6597
 IR Inten    --      0.2578                27.9949                 9.9699

                     64                     65                     66
                      A                      A                      A
 Frequencies --   1305.3797              1371.7758              1372.9146
 Red. masses --      1.7825                 1.4846                 1.4477
 Frc consts  --      1.7896                 1.6460                 1.6078
 IR Inten    --      3.2573                52.6456                 1.4996

                     67                     68                     69
                      A                      A                      A
 Frequencies --   1386.8331              1387.9319              1428.5035
 Red. masses --      1.3914                 1.3985                 1.4033
 Frc consts  --      1.5767                 1.5872                 1.6871
 IR Inten    --      8.3616                 1.4566                33.1542

                     70                     71                     72
                      A                      A                      A
 Frequencies --   1429.0643              1439.8897              1443.4384
 Red. masses --      1.3763                 1.5333                 1.1898
 Frc consts  --      1.6561                 1.8730                 1.4606
 IR Inten    --      0.9340                64.4227               123.7968

                     73                     74                     75
                      A                      A                      A
 Frequencies --   1444.3821              1447.3965              1487.7634
 Red. masses --      1.4956                 1.2838                 1.2322
 Frc consts  --      1.8383                 1.5847                 1.6069
 IR Inten    --      1.2944                 3.5749               215.4688

                     76                     77                     78
                      A                      A                      A
 Frequencies --   1488.8326              1492.5317              1501.1093
 Red. masses --      1.2278                 1.0858                 1.0743
 Frc consts  --      1.6035                 1.4252                 1.4263
 IR Inten    --      5.4570                 7.8343                 0.3679

                     79                     80                     81
                      A                      A                      A
 Frequencies --   1508.6746              1510.3131              1517.6774
 Red. masses --      1.0918                 1.0734                 1.1209
 Frc consts  --      1.4642                 1.4426                 1.5211
 IR Inten    --     16.8136                 7.1703                 0.2780

                     82                     83                     84
                      A                      A                      A
 Frequencies --   1519.9576              1525.6702              1538.7923
 Red. masses --      1.0865                 1.1069                 1.1265
 Frc consts  --      1.4789                 1.5181                 1.5716
 IR Inten    --      0.6470                 2.0587               362.5693

                     85                     86                     87
                      A                      A                      A
 Frequencies --   1663.7840              1667.2225              2968.0172
 Red. masses --      1.0881                 1.0895                 1.0717
 Frc consts  --      1.7747                 1.7843                 5.5626
 IR Inten    --     73.8568                11.2643                42.2179

                     88                     89                     90
                      A                      A                      A
 Frequencies --   2968.0780              2995.8335              2995.9335
 Red. masses --      1.0718                 1.0674                 1.0677
 Frc consts  --      5.5628                 5.6445                 5.6465
 IR Inten    --    180.1434               134.2778                 3.5496

                     91                     92                     93
                      A                      A                      A
 Frequencies --   3064.5675              3066.1000              3077.3703
 Red. masses --      1.0672                 1.0683                 1.1004
 Frc consts  --      5.9051                 5.9171                 6.1399
 IR Inten    --     28.9382                21.6864                48.1159

                     94                     95                     96
                      A                      A                      A
 Frequencies --   3077.5683              3091.3404              3093.2042
 Red. masses --      1.1005                 1.0966                 1.0963
 Frc consts  --      6.1415                 6.1746                 6.1800
 IR Inten    --     15.4146               207.3066                94.6350

                     97                     98                     99
                      A                      A                      A
 Frequencies --   3143.9843              3147.5717              3153.2099
 Red. masses --      1.0762                 1.1021                 1.0968
 Frc consts  --      6.2674                 6.4332                 6.4250
 IR Inten    --    145.9291                14.2306                19.8696

                    100                    101                    102
                      A                      A                      A
 Frequencies --   3156.9059              3455.1600              3455.7860
 Red. masses --      1.0749                 1.0534                 1.0537
 Frc consts  --      6.3116                 7.4096                 7.4139
 IR Inten    --   1572.2296                34.8926                 1.2632

                    103                    104                    105
                      A                      A                      A
 Frequencies --   3539.5478              3539.5919              3600.7659
 Red. masses --      1.0901                 1.0903                 1.0667
 Frc consts  --      8.0466                 8.0480                 8.1482
 IR Inten    --      2.1154                29.6948                 1.2010

                    106                    107                    108
                      A                      A                      A
 Frequencies --   3608.1285              3627.0699              3627.3097
 Red. masses --      1.0666                 1.0664                 1.0663
 Frc consts  --      8.1813                 8.2654                 8.2664
 IR Inten    --    901.7047                38.9540               146.7862

 Optimization completed.
    -- Stationary point found.
 Normal termination of Gaussian 16 at Tue Aug  9 17:32:35 2022.
