 Gaussian 16, Revision B.01,
 Gaussian 16:  ES64L-G16RevB.01 20-Dec-2017

 ----------------------------------------------------------------------
 #T wB97XD/def2svpp opt=tight freq int(grid=ultrafine) scf=(verytight,q
 c)
 ----------------------------------------------------------------------
 --------------
 Comment gs min
 --------------
 Symbolic Z-matrix:
 Charge =  0 Multiplicity = 1

 SCF Done:  E(RwB97XD) =  -346.632746231     a.u. after    8 cycles
 SCF Done:  E(RwB97XD) =  -346.635283007     a.u. after    6 cycles
 SCF Done:  E(RwB97XD) =  -346.635411221     a.u. after    4 cycles
 SCF Done:  E(RwB97XD) =  -346.635418141     a.u. after    3 cycles
 SCF Done:  E(RwB97XD) =  -346.635411291     a.u. after    3 cycles
 SCF Done:  E(RwB97XD) =  -346.635418629     a.u. after    3 cycles
 SCF Done:  E(RwB97XD) =  -346.635419187     a.u. after    2 cycles
 SCF Done:  E(RwB97XD) =  -346.635419186     a.u. after    2 cycles
 SCF Done:  E(RwB97XD) =  -346.635419171     a.u. after    2 cycles
 SCF Done:  E(RwB97XD) =  -346.635419186     a.u. after    2 cycles
 Optimization completed.
    -- Stationary point found.

 1\1\GINC-C241\FOpt\RwB97XD\def2SVPP\C5H10O2\PETERCHAO1\04-Aug-2022\0\\
 #T wB97XD/def2svpp opt=tight freq int(grid=ultrafine) scf=(verytight,q
 c)\\Comment gs min\\0,1\C,0.9834793237,0.0914529381,-0.0737245296\C,2.
 5235980275,0.0759768255,-0.0764284421\C,3.0504408325,-0.483179632,1.25
 84875167\C,3.0304410564,-0.7864070404,-1.2347890538\C,3.0474474929,1.5
 101970081,-0.2704960755\O,2.6855765105,2.4016883643,0.6752661844\O,3.7
 343873366,1.8615977862,-1.1844627876\H,0.5993704997,-0.9400002828,0.00
 91054167\H,0.5886869223,0.529044442,-1.0065937558\H,0.5620041415,0.662

 Normal termination of Gaussian 16 at Thu Aug  4 16:17:12 2022.

 ---------------------------------------------------------------------
 #T Geom=AllCheck Guess=TCheck SCRF=Check GenChk RwB97XD/def2SVPP Freq
 ---------------------------------------------------------------------
 Structure from the checkpoint file:  "/scratch/user/peterchao1/peterchao1/6097796_1659647584000000562887262/Gau-202453.chk"
 --------------
 Comment gs min
 --------------
 Charge =  0 Multiplicity = 1

                         Standard orientation:
 ---------------------------------------------------------------------
 Center     Atomic      Atomic             Coordinates (Angstroms)
 Number     Number       Type             X           Y           Z
 ---------------------------------------------------------------------
      1          6           0        0.966853   -0.783196   -1.262562
      2          6           0        0.551528   -0.004956   -0.000002
      3          6           0        0.966804   -0.782879    1.262773
      4          6           0        1.215651    1.373934   -0.000163
      5          6           0       -0.975374    0.189050   -0.000021
      6          8           0       -1.712009   -0.941234   -0.000011
      7          8           0       -1.522113    1.252902   -0.000025
      8          1           0        2.065930   -0.878236   -1.298518
      9          1           0        0.639116   -0.260573   -2.177465
     10          1           0        0.552250   -1.807282   -1.290652
     11          1           0        2.065874   -0.878001    1.298746
     12          1           0        0.552094   -1.806912    1.291150
     13          1           0        0.639116   -0.259966    2.177527
     14          1           0        2.314102    1.263707   -0.000107
     15          1           0        0.920180    1.955329    0.887907
     16          1           0        0.920250    1.955090   -0.888416
     17          1           0       -1.148707   -1.728218   -0.000029
 ---------------------------------------------------------------------

 SCF Done:  E(RwB97XD) =  -346.635419186     a.u. after    1 cycles

 The electronic state is 1-A.
 Alpha  occ. eigenvalues --  -19.30096 -19.23795 -10.42512 -10.33520 -10.30861
 Alpha  occ. eigenvalues --  -10.30860 -10.28918  -1.19658  -1.10999  -0.93048
 Alpha  occ. eigenvalues --   -0.79998  -0.78801  -0.73327  -0.69310  -0.59795
 Alpha  occ. eigenvalues --   -0.56161  -0.55618  -0.52766  -0.52369  -0.50571
 Alpha  occ. eigenvalues --   -0.48803  -0.48386  -0.46480  -0.44214  -0.43270
 Alpha  occ. eigenvalues --   -0.43154  -0.40353  -0.35239
 Alpha virt. eigenvalues --    0.08942   0.09813   0.14849   0.17016   0.18192
 Alpha virt. eigenvalues --    0.19220   0.19535   0.22205   0.23276   0.23623
 Alpha virt. eigenvalues --    0.25826   0.25978   0.27703   0.30273   0.30938

 Mulliken charges:
               1
     1  C   -0.279974
     2  C   -0.384278
     3  C   -0.279955
     4  C   -0.247398
     5  C    0.292139
     6  O   -0.369536
     7  O   -0.207016
     8  H    0.132162
     9  H    0.142293
    10  H    0.105523
    11  H    0.132160
    12  H    0.105523
    13  H    0.142291
    14  H    0.112237
    15  H    0.133000
    16  H    0.132993
    17  H    0.337837
 Sum of Mulliken charges =   0.00000

 Dipole moment (field-independent basis, Debye):
    X=              3.3176    Y=             -2.7956    Z=              0.0000  Tot=              4.3384
  Exact polarizability:  56.055  -1.262  61.738  -0.000  -0.000  51.479
 Approx polarizability:  59.450  -3.202  69.630  -0.000  -0.000  53.458
   1 Symmetry operations used in ECPInt.
 ECPInt:  NShTT=    1953 NPrTT=    7871 LenC2=    1947 LenP2D=    6422.
 LDataN:  DoStor=T MaxTD1= 6 Len=  172
 Calling FoFJK, ICntrl=    100127 FMM=F ISym2X=0 I1Cent= 0 IOpClX= 0 NMat=1 NMatS=1 NMatT=0.
 Full mass-weighted force constant matrix:
 Low frequencies ---   -5.5738   -4.1456    0.0006    0.0008    0.0010    9.1722
 Low frequencies ---   43.6332  199.2790  250.8033
 Diagonal vibrational polarizability:

                      1                      2                      3
                      A                      A                      A
 Frequencies --     43.5547               199.2790               250.8013
 Red. masses --      4.3512                 1.2672                 1.6053
 Frc consts  --      0.0049                 0.0296                 0.0595
 IR Inten    --      6.1785                 1.0515                 3.9979

                      4                      5                      6
                      A                      A                      A
 Frequencies --    267.9818               272.3050               297.7971
 Red. masses --      1.0989                 2.7181                 1.2236
 Frc consts  --      0.0465                 0.1187                 0.0639
 IR Inten    --      0.9544                 5.7496                 3.4444

                      7                      8                      9
                      A                      A                      A
 Frequencies --    358.0867               377.0270               389.8401
 Red. masses --      2.8392                 2.7395                 2.2570
 Frc consts  --      0.2145                 0.2294                 0.2021
 IR Inten    --      5.6081                 0.1705                 1.6363

                     10                     11                     12
                      A                      A                      A
 Frequencies --    507.3719               519.1038               593.5851
 Red. masses --      1.1236                 3.3705                 3.5293
 Frc consts  --      0.1704                 0.5351                 0.7327
 IR Inten    --    103.8070                 0.7375                 2.6746

                     13                     14                     15
                      A                      A                      A
 Frequencies --    764.6407               783.0207               889.0709
 Red. masses --      5.3239                 6.0303                 2.3686
 Frc consts  --      1.8340                 2.1784                 1.1031
 IR Inten    --      8.2901                 2.4710                 9.3362

                     16                     17                     18
                      A                      A                      A
 Frequencies --    959.0616               966.2330               976.8215
 Red. masses --      1.5905                 1.5274                 1.2160
 Frc consts  --      0.8620                 0.8402                 0.6836
 IR Inten    --      1.9129                 2.5234                 0.5792

                     19                     20                     21
                      A                      A                      A
 Frequencies --   1054.8664              1055.7256              1183.2243
 Red. masses --      1.4440                 1.4086                 2.0902
 Frc consts  --      0.9467                 0.9250                 1.7241
 IR Inten    --      0.0001                 0.8589                 8.6290

                     22                     23                     24
                      A                      A                      A
 Frequencies --   1258.1792              1260.7181              1277.3978
 Red. masses --      2.8462                 1.8598                 2.7515
 Frc consts  --      2.6546                 1.7416                 2.6453
 IR Inten    --      3.6436               114.0367                31.2110

                     25                     26                     27
                      A                      A                      A
 Frequencies --   1368.1423              1411.0305              1417.6186
 Red. masses --      2.8969                 1.2347                 1.3355
 Frc consts  --      3.1948                 1.4483                 1.5813
 IR Inten    --    263.1026                 7.2414                 4.7408

                     28                     29                     30
                      A                      A                      A
 Frequencies --   1442.4313              1472.7659              1475.6317
 Red. masses --      1.2358                 1.0422                 1.0453
 Frc consts  --      1.5149                 1.3319                 1.3410
 IR Inten    --     12.1789                 0.1461                 2.5790

                     31                     32                     33
                      A                      A                      A
 Frequencies --   1478.2571              1498.7041              1502.8911
 Red. masses --      1.0460                 1.0560                 1.0568
 Frc consts  --      1.3468                 1.3975                 1.4064
 IR Inten    --      0.7164                 9.8392                16.2779

                     34                     35                     36
                      A                      A                      A
 Frequencies --   1512.9055              1927.1056              3026.8397
 Red. masses --      1.0924                11.1141                 1.0381
 Frc consts  --      1.4731                24.3184                 5.6036
 IR Inten    --     46.4142               269.5897                16.3100

                     37                     38                     39
                      A                      A                      A
 Frequencies --   3029.5720              3045.2254              3114.0716
 Red. masses --      1.0383                 1.0386                 1.1035
 Frc consts  --      5.6147                 5.6747                 6.3051
 IR Inten    --     25.6756                13.3641                 2.0670

                     40                     41                     42
                      A                      A                      A
 Frequencies --   3117.1000              3133.2597              3133.3473
 Red. masses --      1.1030                 1.1060                 1.1057
 Frc consts  --      6.3142                 6.3972                 6.3961
 IR Inten    --     43.1719                 6.1800                 4.8956

                     43                     44                     45
                      A                      A                      A
 Frequencies --   3138.9822              3154.4267              3769.0876
 Red. masses --      1.1042                 1.1051                 1.0655
 Frc consts  --      6.4105                 6.4785                 8.9181
 IR Inten    --     23.5490                10.3663                39.0605

                           ! Non-Optimized Parameters !

 1\1\GINC-C241\Freq\RwB97XD\def2SVPP\C5H10O2\PETERCHAO1\04-Aug-2022\0\\
 #T Geom=AllCheck Guess=TCheck SCRF=Check GenChk RwB97XD/def2SVPP Freq\
 \Comment gs min\\0,1\C,0.9834793237,0.0914529381,-0.0737245296\C,2.523
 5980275,0.0759768255,-0.0764284421\C,3.0504408325,-0.483179632,1.25848
 75167\C,3.0304410564,-0.7864070404,-1.2347890538\C,3.0474474929,1.5101
 970081,-0.2704960755\O,2.6855765105,2.4016883643,0.6752661844\O,3.7343
 873366,1.8615977862,-1.1844627876\H,0.5993704997,-0.9400002828,0.00910
 54167\H,0.5886869223,0.529044442,-1.0065937558\H,0.5620041415,0.662864

 Normal termination of Gaussian 16 at Thu Aug  4 16:18:27 2022.
