 Gaussian 16, Revision B.01,
 Gaussian 16:  ES64L-G16RevB.01 20-Dec-2017

 ----------------------------------------------------------------------
 #T wB97XD/def2svpp opt=tight freq int(grid=ultrafine) scf=(verytight,q
 c)
 ----------------------------------------------------------------------
 -------
 comment
 -------
 Symbolic Z-matrix:
 Charge =  1 Multiplicity = 2

 SCF Done:  E(UwB97XD) =  -422.571322538     a.u. after   25 cycles
 SCF Done:  E(UwB97XD) =  -422.581644123     a.u. after   19 cycles
 SCF Done:  E(UwB97XD) =  -422.586069747     a.u. after   17 cycles
 SCF Done:  E(UwB97XD) =  -422.588591200     a.u. after   13 cycles
 SCF Done:  E(UwB97XD) =  -422.591102979     a.u. after    9 cycles
 SCF Done:  E(UwB97XD) =  -422.592311388     a.u. after    9 cycles
 SCF Done:  E(UwB97XD) =  -422.592723962     a.u. after    7 cycles
 SCF Done:  E(UwB97XD) =  -422.592954458     a.u. after    7 cycles
 SCF Done:  E(UwB97XD) =  -422.593146949     a.u. after    7 cycles
 SCF Done:  E(UwB97XD) =  -422.593290569     a.u. after    7 cycles
 SCF Done:  E(UwB97XD) =  -422.595824656     a.u. after    6 cycles
 SCF Done:  E(UwB97XD) =  -422.595849101     a.u. after    4 cycles
 SCF Done:  E(UwB97XD) =  -422.595874067     a.u. after    4 cycles
 SCF Done:  E(UwB97XD) =  -422.595888770     a.u. after    3 cycles
 SCF Done:  E(UwB97XD) =  -422.595892715     a.u. after    3 cycles
 SCF Done:  E(UwB97XD) =  -422.595892978     a.u. after    2 cycles
 SCF Done:  E(UwB97XD) =  -422.595893016     a.u. after    2 cycles
 SCF Done:  E(UwB97XD) =  -422.595893023     a.u. after    2 cycles
 SCF Done:  E(UwB97XD) =  -422.595893023     a.u. after    2 cycles
 Optimization completed.
    -- Stationary point found.
 Normal termination of Gaussian 16 at Mon Jul 10 20:15:24 2023.

 ---------------------------------------------------------------------
 #T Geom=AllCheck Guess=TCheck SCRF=Check GenChk UwB97XD/def2SVPP Freq
 ---------------------------------------------------------------------
 Structure from the checkpoint file:  "13.chk"
 -------
 comment
 -------
 Charge =  1 Multiplicity = 2

                         Standard orientation:
 ---------------------------------------------------------------------
 Center     Atomic      Atomic             Coordinates (Angstroms)
 Number     Number       Type             X           Y           Z
 ---------------------------------------------------------------------
      1          6           0       -0.217199   -0.408592    1.598307
      2          6           0       -0.263176   -0.128519    0.113482
      3          6           0        0.883201   -1.168296   -0.690728
      4          8           0        2.024572   -1.016188   -0.041522
      5          6           0       -1.590407   -0.549296   -0.577646
      6          8           0       -2.547148    0.377190   -0.190926
      7          6           0        0.164140    1.288646   -0.274427
      8          8           0        1.546176    1.436726   -0.012958
      9          1           0       -0.342176   -1.482065    1.817757
     10          1           0       -1.047700    0.137705    2.080319
     11          1           0        0.716808   -0.054097    2.058312
     12          1           0        0.851833   -0.734658   -1.709264
     13          1           0        0.500483   -2.194893   -0.602173
     14          1           0        2.329000   -0.063146   -0.136526
     15          1           0       -1.850194   -1.586554   -0.301439
     16          1           0       -1.478850   -0.487922   -1.673396
     17          1           0       -3.078014    0.056753    0.553770
     18          1           0       -0.431648    1.993497    0.332976
     19          1           0       -0.059180    1.477870   -1.341075
     20          1           0        1.841489    2.352033   -0.129934
 ---------------------------------------------------------------------

 SCF Done:  E(UwB97XD) =  -422.595893023     a.u. after    1 cycles

 The electronic state is 2-A.
 Alpha  occ. eigenvalues --  -19.52415 -19.46013 -19.44534 -10.58051 -10.54899
 Alpha  occ. eigenvalues --  -10.53322 -10.53180 -10.46007  -1.39618  -1.31587
 Alpha  occ. eigenvalues --   -1.31111  -1.10741  -0.98575  -0.96619  -0.95856
 Alpha  occ. eigenvalues --   -0.87384  -0.82413  -0.81251  -0.80125  -0.76458
 Alpha  occ. eigenvalues --   -0.76086  -0.73258  -0.72395  -0.69128  -0.68565
 Alpha  occ. eigenvalues --   -0.66219  -0.64964  -0.63046  -0.61364  -0.59508
 Alpha  occ. eigenvalues --   -0.57477  -0.55618  -0.54274
 Alpha virt. eigenvalues --   -0.04863  -0.03989  -0.02287  -0.00013   0.00849
 Alpha virt. eigenvalues --    0.02308   0.03942   0.04935   0.05114   0.06050
 Alpha virt. eigenvalues --    0.07505   0.09052   0.09638   0.10472   0.11313

  Beta  occ. eigenvalues --  -19.51427 -19.45980 -19.44263 -10.57850 -10.54464
  Beta  occ. eigenvalues --  -10.53286 -10.53193 -10.46024  -1.37454  -1.31341
  Beta  occ. eigenvalues --   -1.30525  -1.09402  -0.97563  -0.96384  -0.95291
  Beta  occ. eigenvalues --   -0.86229  -0.81732  -0.80282  -0.79661  -0.75771
  Beta  occ. eigenvalues --   -0.74177  -0.72734  -0.70692  -0.68693  -0.67223
  Beta  occ. eigenvalues --   -0.64856  -0.63750  -0.62357  -0.60364  -0.59052
  Beta  occ. eigenvalues --   -0.56031  -0.53327
  Beta virt. eigenvalues --   -0.31301  -0.04320  -0.03438  -0.01813   0.00691
  Beta virt. eigenvalues --    0.01544   0.02768   0.04135   0.05016   0.05321
  Beta virt. eigenvalues --    0.06509   0.07782   0.09270   0.09738   0.10833

 Mulliken charges and spin densities:
               1          2
     1  C   -0.270138  -0.006370
     2  C   -0.455763   0.294307
     3  C    0.023514   0.127920
     4  O   -0.243647   0.389456
     5  C    0.078906   0.017173
     6  O   -0.421863   0.103569
     7  C    0.090504  -0.008815
     8  O   -0.526966   0.012535
     9  H    0.170734   0.002794
    10  H    0.173815   0.022029
    11  H    0.183974   0.001678
    12  H    0.203488   0.037770
    13  H    0.201706   0.002674
    14  H    0.401902  -0.009197
    15  H    0.159644  -0.001458
    16  H    0.151089  -0.001695
    17  H    0.363042  -0.003363
    18  H    0.181074   0.020369
    19  H    0.152998  -0.000512
    20  H    0.381989  -0.000864
 Sum of Mulliken charges =   1.00000   1.00000

 Dipole moment (field-independent basis, Debye):
    X=              0.2615    Y=              0.0096    Z=             -0.6434  Tot=              0.6946
  Exact polarizability: 110.209  -8.854  63.642  -1.948   0.973  57.428
 Approx polarizability: 101.712 -11.167  68.651  -0.804   0.747  60.951
                          Isotropic Fermi Contact Couplings
        Atom                 a.u.       MegaHertz       Gauss      10(-4) cm-1
     1  C(13)             -0.01234     -13.87260      -4.95009      -4.62740
     2  C(13)              0.02675      30.07308      10.73082      10.03130
     3  C(13)             -0.00729      -8.19762      -2.92512      -2.73443
     4  O(17)              0.15446     -93.63193     -33.41020     -31.23225
     5  C(13)              0.00334       3.75280       1.33909       1.25180
     6  O(17)              0.04223     -25.60042      -9.13487      -8.53938

                      1                      2                      3
                      A                      A                      A
 Frequencies --     99.6365               137.6742               181.0865
 Red. masses --      2.9708                 3.2439                 3.3749
 Frc consts  --      0.0174                 0.0362                 0.0652
 IR Inten    --     10.9012                 0.4186                 6.4592

                      4                      5                      6
                      A                      A                      A
 Frequencies --    200.5565               248.6746               256.9422
 Red. masses --      3.0659                 1.2691                 3.3589
 Frc consts  --      0.0727                 0.0462                 0.1307
 IR Inten    --      4.1824                14.7775                12.8827

                      7                      8                      9
                      A                      A                      A
 Frequencies --    291.0206               295.1164               325.9915
 Red. masses --      3.1593                 2.8703                 1.1645
 Frc consts  --      0.1576                 0.1473                 0.0729
 IR Inten    --     46.3170                 4.9942               155.9901

                     10                     11                     12
                      A                      A                      A
 Frequencies --    340.8182               364.5658               416.5905
 Red. masses --      1.3812                 2.0310                 2.0992
 Frc consts  --      0.0945                 0.1590                 0.2146
 IR Inten    --     22.1775                18.8593                18.3869

                     13                     14                     15
                      A                      A                      A
 Frequencies --    450.3631               518.6185               609.6973
 Red. masses --      3.4175                 4.3804                 3.0792
 Frc consts  --      0.4084                 0.6942                 0.6744
 IR Inten    --      6.5088                 6.7503                48.5290

                     16                     17                     18
                      A                      A                      A
 Frequencies --    664.6643               784.3009               922.8092
 Red. masses --      1.4113                 2.7997                 1.5574
 Frc consts  --      0.3673                 1.0147                 0.7814
 IR Inten    --    127.6927                23.6702                 5.2774

                     19                     20                     21
                      A                      A                      A
 Frequencies --    960.7101               967.7484               998.8589
 Red. masses --      1.3135                 1.9413                 1.2230
 Frc consts  --      0.7143                 1.0712                 0.7189
 IR Inten    --     34.1428               116.2076                62.5073

                     22                     23                     24
                      A                      A                      A
 Frequencies --   1028.6988              1110.6285              1158.2190
 Red. masses --      1.4600                 3.7014                 2.8278
 Frc consts  --      0.9103                 2.6900                 2.2350
 IR Inten    --     18.9232                23.7356               198.7088

                     25                     26                     27
                      A                      A                      A
 Frequencies --   1171.1652              1184.8885              1199.4544
 Red. masses --      1.8374                 1.1016                 1.4783
 Frc consts  --      1.4849                 0.9113                 1.2531
 IR Inten    --      4.6666                11.8266                 6.4780

                     28                     29                     30
                      A                      A                      A
 Frequencies --   1216.4506              1251.2817              1276.9601
 Red. masses --      1.7287                 1.2191                 1.3834
 Frc consts  --      1.5072                 1.1246                 1.3291
 IR Inten    --     62.5626                32.6865                 5.3575

                     31                     32                     33
                      A                      A                      A
 Frequencies --   1321.7422              1341.6788              1400.1297
 Red. masses --      2.5114                 1.5842                 1.2395
 Frc consts  --      2.5850                 1.6802                 1.4316
 IR Inten    --     93.3683                49.7612                20.2252

                     34                     35                     36
                      A                      A                      A
 Frequencies --   1403.0431              1419.4021              1443.7973
 Red. masses --      1.1714                 1.2942                 1.2895
 Frc consts  --      1.3586                 1.5362                 1.5838
 IR Inten    --     25.6928                13.1228                28.7279

                     37                     38                     39
                      A                      A                      A
 Frequencies --   1466.8987              1478.1329              1485.1122
 Red. masses --      1.1888                 1.1141                 1.1484
 Frc consts  --      1.5071                 1.4342                 1.4923
 IR Inten    --     53.5317                 1.7404                30.4790

                     40                     41                     42
                      A                      A                      A
 Frequencies --   1505.5153              1511.5262              1529.5794
 Red. masses --      1.1248                 1.0963                 1.2265
 Frc consts  --      1.5021                 1.4758                 1.6907
 IR Inten    --     17.8540                13.3092                 0.6208

                     43                     44                     45
                      A                      A                      A
 Frequencies --   3034.4710              3040.4741              3046.9380
 Red. masses --      1.0583                 1.0586                 1.0410
 Frc consts  --      5.7416                 5.7660                 5.6940
 IR Inten    --      6.8382                 5.0569                 2.3845

                     46                     47                     48
                      A                      A                      A
 Frequencies --   3056.1003              3106.6147              3130.0766
 Red. masses --      1.0588                 1.1092                 1.1139
 Frc consts  --      5.8263                 6.3074                 6.4298
 IR Inten    --     22.5149                 6.0096                 6.3558

                     49                     50                     51
                      A                      A                      A
 Frequencies --   3137.6421              3150.3523              3177.3040
 Red. masses --      1.1022                 1.0727                 1.1054
 Frc consts  --      6.3935                 6.2727                 6.5746
 IR Inten    --      3.0453               723.2397                 0.5500

                     52                     53                     54
                      A                      A                      A
 Frequencies --   3195.6541              3750.9175              3764.7139
 Red. masses --      1.1061                 1.0674                 1.0675
 Frc consts  --      6.6555                 8.8481                 8.9139
 IR Inten    --     82.9312               304.9257               174.2000

 Optimization completed.
    -- Stationary point found.
 Normal termination of Gaussian 16 at Mon Jul 10 20:18:15 2023.
