 Gaussian 16, Revision B.01,
 Gaussian 16:  ES64L-G16RevB.01 20-Dec-2017

 ----------------------------------------------------------------------
 #T wB97XD/def2svpp opt=tight freq int(grid=ultrafine) scf=(verytight,q
 c)
 ----------------------------------------------------------------------
 -----
 dimer
 -----
 Symbolic Z-matrix:
 Charge =  0 Multiplicity = 1

 SCF Done:  E(RwB97XD) =  -693.322592858     a.u. after    8 cycles
 SCF Done:  E(RwB97XD) =  -693.326278489     a.u. after    6 cycles
 SCF Done:  E(RwB97XD) =  -693.326364546     a.u. after    4 cycles
 SCF Done:  E(RwB97XD) =  -693.326396587     a.u. after    3 cycles
 SCF Done:  E(RwB97XD) =  -693.326417096     a.u. after    4 cycles
 SCF Done:  E(RwB97XD) =  -693.326426502     a.u. after    4 cycles
 SCF Done:  E(RwB97XD) =  -693.326430300     a.u. after    2 cycles
 SCF Done:  E(RwB97XD) =  -693.326431174     a.u. after    2 cycles
 SCF Done:  E(RwB97XD) =  -693.326431440     a.u. after    2 cycles
 SCF Done:  E(RwB97XD) =  -693.326431555     a.u. after    2 cycles
 SCF Done:  E(RwB97XD) =  -693.326431563     a.u. after    2 cycles
 SCF Done:  E(RwB97XD) =  -693.326431563     a.u. after    2 cycles
 SCF Done:  E(RwB97XD) =  -693.326431564     a.u. after    2 cycles
 SCF Done:  E(RwB97XD) =  -693.326431564     a.u. after    2 cycles
 SCF Done:  E(RwB97XD) =  -693.326431564     a.u. after    2 cycles
 SCF Done:  E(RwB97XD) =  -693.326431564     a.u. after    2 cycles
 SCF Done:  E(RwB97XD) =  -693.326431564     a.u. after    2 cycles
 Optimization completed.
    -- Stationary point found.
 Normal termination of Gaussian 16 at Tue Aug  9 16:26:36 2022.

 ---------------------------------------------------------------------
 #T Geom=AllCheck Guess=TCheck SCRF=Check GenChk RwB97XD/def2SVPP Freq
 ---------------------------------------------------------------------
 Structure from the checkpoint file:  "/scratch/user/peterchao1/peterchao1/6113312_1660079070000000064873637/Gau-158468.chk"
 -----
 dimer
 -----
 Charge =  0 Multiplicity = 1

                         Standard orientation:
 ---------------------------------------------------------------------
 Center     Atomic      Atomic             Coordinates (Angstroms)
 Number     Number       Type             X           Y           Z
 ---------------------------------------------------------------------
      1          6           0        3.919807   -0.705995    1.259344
      2          6           0        3.428118    0.030303    0.000003
      3          6           0        3.928166    1.476719   -0.000002
      4          6           0        3.919823   -0.706009   -1.259323
      5          6           0        1.903220    0.015884   -0.000006
      6          8           0        1.381288   -1.183756   -0.000003
      7          8           0        1.231205    1.038624   -0.000017
      8          1           0        3.561270   -0.208211    2.177441
      9          1           0        5.023598   -0.705189    1.282007
     10          1           0        3.571386   -1.751316    1.272607
     11          1           0        3.573564    2.022874   -0.889400
     12          1           0        5.031959    1.489202    0.000003
     13          1           0        3.573556    2.022883    0.889386
     14          1           0        5.023614   -0.705205   -1.281972
     15          1           0        3.561298   -0.208234   -2.177430
     16          1           0        3.571401   -1.751330   -1.272580
     17          1           0        0.371734   -1.139597   -0.000008
     18          6           0       -3.928164   -1.476721    0.000002
     19          6           0       -3.428117   -0.030304    0.000003
     20          6           0       -3.919821    0.706003   -1.259328
     21          6           0       -3.919810    0.705999    1.259340
     22          6           0       -1.903220   -0.015883   -0.000004
     23          8           0       -1.381289    1.183758   -0.000000
     24          8           0       -1.231203   -1.038622   -0.000013
     25          1           0       -3.573556   -2.022880    0.889394
     26          1           0       -3.573559   -2.022879   -0.889392
     27          1           0       -5.031957   -1.489205    0.000005
     28          1           0       -3.561296    0.208223   -2.177432
     29          1           0       -3.571398    1.751324   -1.272589
     30          1           0       -5.023612    0.705199   -1.281977
     31          1           0       -5.023601    0.705190    1.282002
     32          1           0       -3.571392    1.751321    1.272599
     33          1           0       -3.561273    0.208220    2.177439
     34          1           0       -0.371735    1.139599   -0.000007
 ---------------------------------------------------------------------

 SCF Done:  E(RwB97XD) =  -693.326431564     a.u. after    1 cycles

 The electronic state is 1-A.
 Alpha  occ. eigenvalues --  -19.28961 -19.28960 -19.25911 -19.25909 -10.43675
 Alpha  occ. eigenvalues --  -10.43675 -10.32434 -10.32433 -10.29085 -10.29085
 Alpha  occ. eigenvalues --  -10.29084 -10.29084 -10.28345 -10.28344  -1.21142
 Alpha  occ. eigenvalues --   -1.19842  -1.11592  -1.10131  -0.92421  -0.92129
 Alpha  occ. eigenvalues --   -0.78318  -0.78317  -0.78009  -0.77951  -0.76186
 Alpha  occ. eigenvalues --   -0.73668  -0.66812  -0.65107  -0.60074  -0.58429
 Alpha  occ. eigenvalues --   -0.57982  -0.57004  -0.56350  -0.55843  -0.52934
 Alpha  occ. eigenvalues --   -0.52635  -0.51808  -0.51681  -0.51460  -0.48633
 Alpha  occ. eigenvalues --   -0.47596  -0.47588  -0.47186  -0.47050  -0.45167
 Alpha  occ. eigenvalues --   -0.45161  -0.43978  -0.43905  -0.42016  -0.41964
 Alpha  occ. eigenvalues --   -0.41949  -0.41941  -0.41483  -0.40434  -0.37716
 Alpha  occ. eigenvalues --   -0.36079
 Alpha virt. eigenvalues --    0.07859   0.08347   0.13104   0.13415   0.17467
 Alpha virt. eigenvalues --    0.17884   0.19488   0.19499   0.19507   0.20141
 Alpha virt. eigenvalues --    0.20345   0.20373   0.20754   0.20757   0.22309

 Mulliken charges:
               1
     1  C   -0.279580
     2  C   -0.315134
     3  C   -0.241154
     4  C   -0.279580
     5  C    0.313134
     6  O   -0.366899
     7  O   -0.319324
     8  H    0.123678
     9  H    0.122893
    10  H    0.141069
    11  H    0.124750
    12  H    0.113075
    13  H    0.124750
    14  H    0.122893
    15  H    0.123678
    16  H    0.141069
    17  H    0.350681
    18  C   -0.241154
    19  C   -0.315134
    20  C   -0.279580
    21  C   -0.279580
    22  C    0.313134
    23  O   -0.366899
    24  O   -0.319324
    25  H    0.124750
    26  H    0.124750
    27  H    0.113075
    28  H    0.123679
    29  H    0.141069
    30  H    0.122893
    31  H    0.122893
    32  H    0.141069
    33  H    0.123678
    34  H    0.350682
 Sum of Mulliken charges =  -0.00000

 Dipole moment (field-independent basis, Debye):
    X=             -0.0000    Y=             -0.0000    Z=              0.0000  Tot=              0.0000
  Exact polarizability: 138.841  -3.233 112.793  -0.000  -0.000 100.884
 Approx polarizability: 126.459  -5.675 132.218  -0.000  -0.000 107.080
   1 Symmetry operations used in ECPInt.
 ECPInt:  NShTT=    7750 NPrTT=   31118 LenC2=    7168 LenP2D=   20153.
 LDataN:  DoStor=T MaxTD1= 6 Len=  172
 Calling FoFJK, ICntrl=    100127 FMM=F ISym2X=0 I1Cent= 0 IOpClX= 0 NMat=1 NMatS=1 NMatT=0.
 Full mass-weighted force constant matrix:
 Low frequencies ---   -1.6053   -0.0018   -0.0012   -0.0005    3.8774    6.5583
 Low frequencies ---   18.5786   32.2363   34.2921
 Diagonal vibrational polarizability:

                      1                      2                      3
                      A                      A                      A
 Frequencies --     18.5786                32.2363                34.2601
 Red. masses --      2.7550                 3.8044                 5.5048
 Frc consts  --      0.0006                 0.0023                 0.0038
 IR Inten    --      0.2996                 0.5561                 0.0000

                      4                      5                      6
                      A                      A                      A
 Frequencies --     78.0730                90.3037               101.9080
 Red. masses --     14.3237                 5.3970                 3.6555
 Frc consts  --      0.0514                 0.0259                 0.0224
 IR Inten    --      0.2220                 0.0000                 7.3466

                      7                      8                      9
                      A                      A                      A
 Frequencies --    133.7322               144.8386               215.2458
 Red. masses --      5.0615                 4.7897                 1.1868
 Frc consts  --      0.0533                 0.0592                 0.0324
 IR Inten    --      0.0000                 0.0000                 0.1151

                     10                     11                     12
                      A                      A                      A
 Frequencies --    219.5579               254.1386               263.3230
 Red. masses --      1.1109                 1.6625                 1.7946
 Frc consts  --      0.0316                 0.0633                 0.0733
 IR Inten    --      0.0000                 0.6868                 0.0000

                     13                     14                     15
                      A                      A                      A
 Frequencies --    282.4881               282.4985               293.5630
 Red. masses --      1.0395                 1.0717                 3.3232
 Frc consts  --      0.0489                 0.0504                 0.1687
 IR Inten    --      0.0287                 0.0000                 0.0000

                     16                     17                     18
                      A                      A                      A
 Frequencies --    298.3843               299.8815               305.7729
 Red. masses --      1.2057                 1.2914                 2.8667
 Frc consts  --      0.0632                 0.0684                 0.1579
 IR Inten    --      0.5884                 0.0000                13.8875

                     19                     20                     21
                      A                      A                      A
 Frequencies --    365.0176               370.0166               388.5692
 Red. masses --      2.6980                 2.9150                 2.2660
 Frc consts  --      0.2118                 0.2351                 0.2016
 IR Inten    --      0.0000                 5.6082                 0.1727

                     22                     23                     24
                      A                      A                      A
 Frequencies --    390.7094               396.9399               406.1111
 Red. masses --      2.3053                 2.9329                 3.0958
 Frc consts  --      0.2073                 0.2723                 0.3008
 IR Inten    --      0.0000                40.3386                 0.0000

                     25                     26                     27
                      A                      A                      A
 Frequencies --    537.2080               575.4906               610.3049
 Red. masses --      4.3334                 5.3329                 3.4231
 Frc consts  --      0.7368                 1.0406                 0.7512
 IR Inten    --      0.0000                62.9401                20.4043

                     28                     29                     30
                      A                      A                      A
 Frequencies --    617.1421               785.5878               797.0450
 Red. masses --      3.7245                 4.2242                 5.1648
 Frc consts  --      0.8358                 1.5360                 1.9332
 IR Inten    --      0.0000                 0.0000                 0.5586

                     31                     32                     33
                      A                      A                      A
 Frequencies --    802.5262               803.1908               906.1585
 Red. masses --      6.0906                 4.3358                 2.2362
 Frc consts  --      2.3111                 1.6480                 1.0819
 IR Inten    --      0.0000                15.4658                 0.0000

                     34                     35                     36
                      A                      A                      A
 Frequencies --    910.9761               964.1118               964.1305
 Red. masses --      2.4049                 1.6090                 1.6091
 Frc consts  --      1.1759                 0.8812                 0.8812
 IR Inten    --     38.6358                 0.0000                 6.5898

                     37                     38                     39
                      A                      A                      A
 Frequencies --    968.6913               968.7289               979.9783
 Red. masses --      1.5157                 1.5157                 1.2037
 Frc consts  --      0.8380                 0.8380                 0.6811
 IR Inten    --      0.0000                 5.6313                 0.0000

                     40                     41                     42
                      A                      A                      A
 Frequencies --    979.9850              1019.8665              1058.7744
 Red. masses --      1.2035                 1.0604                 1.2469
 Frc consts  --      0.6810                 0.6499                 0.8236
 IR Inten    --      0.0014                 0.0000                53.5359

                     43                     44                     45
                      A                      A                      A
 Frequencies --   1059.9929              1061.0939              1061.2655
 Red. masses --      1.4493                 1.4039                 1.2658
 Frc consts  --      0.9594                 0.9313                 0.8400
 IR Inten    --      0.0000                 0.0000               136.4343

                     46                     47                     48
                      A                      A                      A
 Frequencies --   1061.3817              1258.8464              1259.4390
 Red. masses --      1.4035                 2.8235                 2.8116
 Frc consts  --      0.9315                 2.6362                 2.6276
 IR Inten    --      1.7180                 0.0000                 5.8790

                     49                     50                     51
                      A                      A                      A
 Frequencies --   1265.1243              1269.2278              1278.5946
 Red. masses --      2.8325                 2.8772                 2.8386
 Frc consts  --      2.6710                 2.7309                 2.7342
 IR Inten    --    147.2290                 0.0000                 0.0000

                     52                     53                     54
                      A                      A                      A
 Frequencies --   1278.9143              1389.8841              1391.4096
 Red. masses --      2.8377                 2.0699                 1.7044
 Frc consts  --      2.7346                 2.3559                 1.9442
 IR Inten    --     32.2861                 0.0000               235.2632

                     55                     56                     57
                      A                      A                      A
 Frequencies --   1403.3162              1403.3533              1414.7709
 Red. masses --      1.2504                 1.2504                 1.3463
 Frc consts  --      1.4508                 1.4509                 1.5876
 IR Inten    --      0.0000                14.2193                16.3146

                     58                     59                     60
                      A                      A                      A
 Frequencies --   1417.5106              1435.6224              1438.4580
 Red. masses --      1.4948                 1.2364                 1.2444
 Frc consts  --      1.7696                 1.5013                 1.5170
 IR Inten    --      0.0000                15.2748                 0.0000

                     61                     62                     63
                      A                      A                      A
 Frequencies --   1472.1387              1472.1585              1478.4906
 Red. masses --      1.0448                 1.0448                 1.0567
 Frc consts  --      1.3341                 1.3342                 1.3609
 IR Inten    --      0.0000                 0.0005                 2.3842

                     64                     65                     66
                      A                      A                      A
 Frequencies --   1478.6198              1484.3220              1484.5136
 Red. masses --      1.0452                 1.0428                 1.0428
 Frc consts  --      1.3464                 1.3536                 1.3540
 IR Inten    --      0.0000                 0.0000                 0.3154

                     67                     68                     69
                      A                      A                      A
 Frequencies --   1489.8293              1495.7495              1495.7533
 Red. masses --      1.4792                 1.0512                 1.0511
 Frc consts  --      1.9344                 1.3856                 1.3855
 IR Inten    --     47.3767                19.8552                 0.0001

                     70                     71                     72
                      A                      A                      A
 Frequencies --   1497.8975              1499.7128              1512.8574
 Red. masses --      1.0773                 1.0833                 1.1044
 Frc consts  --      1.4241                 1.4355                 1.4893
 IR Inten    --      0.0000                23.8458                 0.0000

                     73                     74                     75
                      A                      A                      A
 Frequencies --   1531.0544              1540.7333              1772.5268
 Red. masses --      1.4133                 1.7195                 6.0794
 Frc consts  --      1.9520                 2.4050                11.2537
 IR Inten    --    210.5445                 0.0000                 0.0000

                     76                     77                     78
                      A                      A                      A
 Frequencies --   1838.1073              2950.9639              3034.5306
 Red. masses --     10.1341                 1.0870                 1.0370
 Frc consts  --     20.1734                 5.5772                 5.6264
 IR Inten    --    786.9566                 0.0000                 0.0001

                     79                     80                     81
                      A                      A                      A
 Frequencies --   3034.5750              3035.5971              3036.0038
 Red. masses --      1.0370                 1.0379                 1.0376
 Frc consts  --      5.6266                 5.6349                 5.6350
 IR Inten    --     52.8836                97.5649                 0.0000

                     82                     83                     84
                      A                      A                      A
 Frequencies --   3043.0877              3043.7240              3083.7585
 Red. masses --      1.0386                 1.0382                 1.0664
 Frc consts  --      5.6664                 5.6668                 5.9748
 IR Inten    --    174.4224                 0.0000              4660.2178

                     85                     86                     87
                      A                      A                      A
 Frequencies --   3123.8162              3123.8850              3124.9052
 Red. masses --      1.1055                 1.1055                 1.1048
 Frc consts  --      6.3559                 6.3562                 6.3561
 IR Inten    --      0.0000                17.3158                13.1080

                     88                     89                     90
                      A                      A                      A
 Frequencies --   3124.9117              3135.9791              3136.1257
 Red. masses --      1.1049                 1.1046                 1.1044
 Frc consts  --      6.3568                 6.4005                 6.3995
 IR Inten    --      0.0024                 0.0000                12.3062

                     91                     92                     93
                      A                      A                      A
 Frequencies --   3147.1850              3147.1928              3148.0442
 Red. masses --      1.1054                 1.1054                 1.1049
 Frc consts  --      6.4510                 6.4510                 6.4512
 IR Inten    --      0.0001                 3.8029                 0.0000

                     94                     95                     96
                      A                      A                      A
 Frequencies --   3148.0606              3149.9191              3150.0485
 Red. masses --      1.1049                 1.1044                 1.1042
 Frc consts  --      6.4513                 6.4560                 6.4557
 IR Inten    --     26.4502                 0.0000                25.0104

 Optimization completed.
    -- Stationary point found.
 Normal termination of Gaussian 16 at Tue Aug  9 16:34:12 2022.
