 Gaussian 16, Revision B.01,
 Gaussian 16:  ES64L-G16RevB.01 20-Dec-2017

 ----------------------------------------------------------------------
 #T wB97XD/def2svpp opt=tight freq int(grid=ultrafine) scf=(verytight,q
 c) Volume=tight
 ----------------------------------------------------------------------
 -------
 Monomer
 -------
 Symbolic Z-matrix:
 Charge =  0 Multiplicity = 1

 SCF Done:  E(RwB97XD) =  -229.568120495     a.u. after    7 cycles
 SCF Done:  E(RwB97XD) =  -229.569548320     a.u. after    6 cycles
 SCF Done:  E(RwB97XD) =  -229.569681556     a.u. after    5 cycles
 SCF Done:  E(RwB97XD) =  -229.569716452     a.u. after    5 cycles
 SCF Done:  E(RwB97XD) =  -229.569738508     a.u. after    4 cycles
 SCF Done:  E(RwB97XD) =  -229.569747375     a.u. after    3 cycles
 SCF Done:  E(RwB97XD) =  -229.569747660     a.u. after    2 cycles
 SCF Done:  E(RwB97XD) =  -229.569747698     a.u. after    2 cycles
 SCF Done:  E(RwB97XD) =  -229.569747707     a.u. after    2 cycles
 SCF Done:  E(RwB97XD) =  -229.569747708     a.u. after    2 cycles
 SCF Done:  E(RwB97XD) =  -229.569747707     a.u. after    2 cycles
 SCF Done:  E(RwB97XD) =  -229.569747708     a.u. after    2 cycles
 SCF Done:  E(RwB97XD) =  -229.569747708     a.u. after    2 cycles
 SCF Done:  E(RwB97XD) =  -229.569747708     a.u. after    2 cycles
 Optimization completed.
    -- Stationary point found.

 1\1\GINC-C209\FOpt\RwB97XD\def2SVPP\C3H10N2\PETERCHAO1\29-Mar-2024\0\\
 #T wB97XD/def2svpp opt=tight freq int(grid=ultrafine) scf=(verytight,q
 c) Volume=tight\\Monomer\\0,1\C,-1.7768333522,-0.7456139674,0.02452019
 58\C,-0.4905626817,0.0134436562,-0.3108803238\N,-0.4772624882,1.400228
 1854,0.1481974553\C,0.7520444001,-0.6955033173,0.2536809642\N,2.020295
 5132,-0.0740639945,-0.0706815942\H,-2.6604841812,-0.2306354609,-0.3925
 71073\H,-1.9110043223,-0.8152820918,1.1203859798\H,-1.7613646264,-1.77
 38108965,-0.3791775599\H,-0.3771285008,0.0466525685,-1.4112507612\H,-0

 Normal termination of Gaussian 16 at Fri Mar 29 15:37:39 2024.

 ---------------------------------------------------------------------
 #T Geom=AllCheck Guess=TCheck SCRF=Check GenChk RwB97XD/def2SVPP Freq
 ---------------------------------------------------------------------
 Structure from the checkpoint file:  "monomer.chk"
 -------
 Monomer
 -------
 Charge =  0 Multiplicity = 1

                         Standard orientation:
 ---------------------------------------------------------------------
 Center     Atomic      Atomic             Coordinates (Angstroms)
 Number     Number       Type             X           Y           Z
 ---------------------------------------------------------------------
      1          6           0       -1.755229   -0.713378   -0.002241
      2          6           0       -0.452893    0.021465   -0.329473
      3          7           0       -0.429425    1.417478    0.100291
      4          6           0        0.769431   -0.691377    0.273179
      5          7           0        2.051698   -0.093637   -0.040442
      6          1           0       -2.624022   -0.195969   -0.446642
      7          1           0       -1.910538   -0.757787    1.092147
      8          1           0       -1.746137   -1.750106   -0.383704
      9          1           0       -0.318722    0.029600   -1.427980
     10          1           0       -0.663209    1.485226    1.093064
     11          1           0       -1.118194    1.972059   -0.407127
     12          1           0        0.775424   -1.747882   -0.049031
     13          1           0        0.649273   -0.708806    1.375325
     14          1           0        1.977816    0.913110    0.120609
     15          1           0        2.254546   -0.206590   -1.034399
 ---------------------------------------------------------------------

 SCF Done:  E(RwB97XD) =  -229.569747708     a.u. after    1 cycles

 The electronic state is 1-A.
 Alpha  occ. eigenvalues --  -14.41847 -14.39786 -10.31776 -10.30408 -10.28400
 Alpha  occ. eigenvalues --   -0.99051  -0.94536  -0.82940  -0.74470  -0.67064
 Alpha  occ. eigenvalues --   -0.59875  -0.56148  -0.52914  -0.51464  -0.50193
 Alpha  occ. eigenvalues --   -0.46595  -0.45674  -0.43287  -0.41649  -0.32278
 Alpha  occ. eigenvalues --   -0.30263
 Alpha virt. eigenvalues --    0.12705   0.15682   0.17368   0.17690   0.20407
 Alpha virt. eigenvalues --    0.22125   0.22571   0.23392   0.24099   0.27467
 Alpha virt. eigenvalues --    0.31319   0.32770   0.33364   0.33956   0.52676

 Mulliken charges:
               1
     1  C   -0.297184
     2  C   -0.099338
     3  N   -0.509848
     4  C   -0.070439
     5  N   -0.499263
     6  H    0.112399
     7  H    0.105828
     8  H    0.115513
     9  H    0.080359
    10  H    0.215707
    11  H    0.222096
    12  H    0.101751
    13  H    0.087928
    14  H    0.225402
    15  H    0.209086
 Sum of Mulliken charges =  -0.00000

 Dipole moment (field-independent basis, Debye):
    X=             -2.3244    Y=              0.4693    Z=             -0.6976  Tot=              2.4718
  Exact polarizability:  49.173   0.637  46.189  -1.101   0.511  43.699
 Approx polarizability:  46.116   0.266  47.647  -0.961   1.021  48.135
   1 Symmetry operations used in ECPInt.
 ECPInt:  NShTT=    1275 NPrTT=    5145 LenC2=    1274 LenP2D=    4356.
 LDataN:  DoStor=T MaxTD1= 6 Len=  172
 Calling FoFJK, ICntrl=    100127 FMM=F ISym2X=0 I1Cent= 0 IOpClX= 0 NMat=1 NMatS=1 NMatT=0.
 Full mass-weighted force constant matrix:
 Low frequencies ---   -9.0241   -0.0004   -0.0002    0.0007    8.2903   13.0521
 Low frequencies ---  151.0203  243.1993  252.5420
 Diagonal vibrational polarizability:

                      1                      2                      3
                      A                      A                      A
 Frequencies --    151.0187               243.1984               252.5378
 Red. masses --      2.1748                 1.9148                 1.1584
 Frc consts  --      0.0292                 0.0667                 0.0435
 IR Inten    --      1.3353                 7.9886                 7.1720

                      4                      5                      6
                      A                      A                      A
 Frequencies --    282.5284               324.7231               377.3773
 Red. masses --      1.0802                 1.2010                 2.3123
 Frc consts  --      0.0508                 0.0746                 0.1940
 IR Inten    --     34.5960                49.2295                 9.4296

                      7                      8                      9
                      A                      A                      A
 Frequencies --    472.5319               513.2344               830.0540
 Red. masses --      1.8592                 2.6264                 2.1891
 Frc consts  --      0.2446                 0.4076                 0.8886
 IR Inten    --      3.4290                15.4578                47.9357

                     10                     11                     12
                      A                      A                      A
 Frequencies --    863.2114               891.6010               938.9305
 Red. masses --      1.3760                 1.2937                 1.4862
 Frc consts  --      0.6041                 0.6060                 0.7719
 IR Inten    --    119.8301                 2.9556               173.8209

                     13                     14                     15
                      A                      A                      A
 Frequencies --    961.5010              1042.1542              1103.4973
 Red. masses --      1.5489                 1.4555                 1.3244
 Frc consts  --      0.8437                 0.9314                 0.9502
 IR Inten    --     71.0129                15.3706                 7.4442

                     16                     17                     18
                      A                      A                      A
 Frequencies --   1127.8132              1178.5272              1210.4924
 Red. masses --      2.1299                 2.3925                 2.0462
 Frc consts  --      1.5962                 1.9578                 1.7665
 IR Inten    --     34.7213                 3.1513                 5.1716

                     19                     20                     21
                      A                      A                      A
 Frequencies --   1310.7260              1337.2804              1398.9718
 Red. masses --      1.6180                 1.3114                 1.2235
 Frc consts  --      1.6378                 1.3818                 1.4108
 IR Inten    --      2.7384                13.8849                 1.3002

                     22                     23                     24
                      A                      A                      A
 Frequencies --   1410.2188              1417.1991              1429.8120
 Red. masses --      1.2351                 1.4193                 1.3522
 Frc consts  --      1.4472                 1.6795                 1.6287
 IR Inten    --      7.1744                 2.4896                14.7850

                     25                     26                     27
                      A                      A                      A
 Frequencies --   1481.2023              1489.4875              1494.5797
 Red. masses --      1.0884                 1.0540                 1.0910
 Frc consts  --      1.4069                 1.3777                 1.4358
 IR Inten    --      0.9932                 5.3700                 9.3022

                     28                     29                     30
                      A                      A                      A
 Frequencies --   1666.3991              1684.0557              3012.4845
 Red. masses --      1.1002                 1.0918                 1.0651
 Frc consts  --      1.8000                 1.8243                 5.6948
 IR Inten    --     31.4680                25.3181                19.4697

                     31                     32                     33
                      A                      A                      A
 Frequencies --   3018.9059              3039.5470              3091.8483
 Red. masses --      1.0415                 1.0854                 1.1012
 Frc consts  --      5.5924                 5.9081                 6.2022
 IR Inten    --     31.5658                42.0276                25.5969

                     34                     35                     36
                      A                      A                      A
 Frequencies --   3110.3824              3118.9672              3475.2408
 Red. masses --      1.1039                 1.1047                 1.0512
 Frc consts  --      6.2923                 6.3315                 7.4798
 IR Inten    --     36.8938                28.2435                 4.1240

                     37                     38                     39
                      A                      A                      A
 Frequencies --   3479.2250              3557.9009              3570.4887
 Red. masses --      1.0521                 1.0918                 1.0919
 Frc consts  --      7.5033                 8.1431                 8.2011
 IR Inten    --      0.0613                 4.6618                 1.5749

 Optimization completed.
    -- Stationary point found.

 1\1\GINC-C209\Freq\RwB97XD\def2SVPP\C3H10N2\PETERCHAO1\29-Mar-2024\0\\
 #T Geom=AllCheck Guess=TCheck SCRF=Check GenChk RwB97XD/def2SVPP Freq\
 \Monomer\\0,1\C,-1.7768333522,-0.7456139674,0.0245201958\C,-0.49056268
 17,0.0134436562,-0.3108803238\N,-0.4772624882,1.4002281854,0.148197455
 3\C,0.7520444001,-0.6955033173,0.2536809642\N,2.0202955132,-0.07406399
 45,-0.0706815942\H,-2.6604841812,-0.2306354609,-0.392571073\H,-1.91100
 43223,-0.8152820918,1.1203859798\H,-1.7613646264,-1.7738108965,-0.3791
 775599\H,-0.3771285008,0.0466525685,-1.4112507612\H,-0.6932575615,1.44

 Normal termination of Gaussian 16 at Fri Mar 29 15:38:20 2024.
