 Gaussian 16, Revision B.01,
 Gaussian 16:  ES64L-G16RevB.01 20-Dec-2017

 --------------------------------------------------------------
 #T wB97XD//def2svpp Volume=tight Geom=AllCheckpoint Guess=Read
 --------------------------------------------------------------
 Structure from the checkpoint file:  "monomer.chk"
 -------
 Monomer
 -------
 Charge =  0 Multiplicity = 1

                         Standard orientation:
 ---------------------------------------------------------------------
 Center     Atomic      Atomic             Coordinates (Angstroms)
 Number     Number       Type             X           Y           Z
 ---------------------------------------------------------------------
      1          6           0        0.052738    1.433508   -1.265755
      2          6           0       -0.000002    0.566514   -0.000002
      3          6           0       -0.052753    1.433519    1.265743
      4          6           0       -1.243221   -0.319676   -0.060088
      5          8           0       -1.143830   -1.242421   -1.028552
      6          8           0       -2.217589   -0.205191    0.630142
      7          6           0        1.243223   -0.319665    0.060090
      8          8           0        1.143852   -1.242387    1.028579
      9          8           0        2.217582   -0.205191   -0.630156
     10          1           0       -0.846357    2.069907   -1.323535
     11          1           0        0.112133    0.812507   -2.172591
     12          1           0        0.943613    2.080563   -1.236581
     13          1           0       -0.943635    2.080564    1.236561
     14          1           0        0.846335    2.069929    1.323517
     15          1           0       -0.112142    0.812526    2.172585
     16          1           0       -1.965105   -1.764857   -1.022741
     17          1           0        1.965129   -1.764819    1.022767
 ---------------------------------------------------------------------

 SCF Done:  E(RwB97XD) =  -495.740247082     A.U. after    1 cycles

 The electronic state is 1-A.
 Alpha  occ. eigenvalues --  -19.31402 -19.31401 -19.25667 -19.25666 -10.44186
 Alpha  occ. eigenvalues --  -10.44185 -10.34222 -10.29769 -10.29765  -1.22045
 Alpha  occ. eigenvalues --   -1.21184  -1.11995  -1.11933  -0.93197  -0.79317
 Alpha  occ. eigenvalues --   -0.78093  -0.74288  -0.66813  -0.63198  -0.58854
 Alpha  occ. eigenvalues --   -0.58641  -0.56272  -0.54691  -0.54250  -0.51257
 Alpha  occ. eigenvalues --   -0.51222  -0.48683  -0.48184  -0.45934  -0.45443
 Alpha  occ. eigenvalues --   -0.44169  -0.41984  -0.41698  -0.38307  -0.36176
 Alpha virt. eigenvalues --    0.07031   0.08543   0.12486   0.13625   0.15648
 Alpha virt. eigenvalues --    0.19187   0.20380   0.20649   0.23809   0.24218
 Alpha virt. eigenvalues --    0.27057   0.27741   0.30013   0.31175   0.35770

 Mulliken charges:
               1
     1  C   -0.257454
     2  C   -0.356945
     3  C   -0.257454
     4  C    0.255572
     5  O   -0.369791
     6  O   -0.211043
     7  C    0.255572
     8  O   -0.369792
     9  O   -0.211043
    10  H    0.128886
    11  H    0.145838
    12  H    0.143254
    13  H    0.143254
    14  H    0.128886
    15  H    0.145838
    16  H    0.343211
    17  H    0.343210
 Sum of Mulliken charges =   0.00000

 Dipole moment (field-independent basis, Debye):
    X=              0.0000    Y=             -0.7797    Z=              0.0000  Tot=              0.7797
 Evaluate density.
 Using the total density.
 Monte-Carlo method of calculating molar volume:
 based on  0.001 e/bohr**3 density envelope.
 Number of points per bohr**3 =  100 CutOff= 1.00D-04
 Using the SCF density.
 There are      1754 points.  Will hold      1754 in memory.
 LenV=  1048282501 MDV=  1048576000.
 Box volume = 5397.355 fraction occupied=0.198
 Integrated density= 4.4993215441921393D+01 error=-2.5006784558078607D+01

 Normal termination of Gaussian 16 at Tue Apr  2 13:53:44 2024.
