 Gaussian 16, Revision B.01,
 Gaussian 16:  ES64L-G16RevB.01 20-Dec-2017

 ----------------------------------------------------------------------
 #T wB97XD/def2svpp opt=tight freq int(grid=ultrafine) scf=(verytight,q
 c) Volume=tight
 ----------------------------------------------------------------------
 -------
 Monomer
 -------
 Symbolic Z-matrix:
 Charge =  0 Multiplicity = 1

 SCF Done:  E(RwB97XD) =  -324.547334888     a.u. after    7 cycles
 SCF Done:  E(RwB97XD) =  -324.547334887     a.u. after    2 cycles
 SCF Done:  E(RwB97XD) =  -324.547334887     a.u. after    2 cycles
 SCF Done:  E(RwB97XD) =  -324.547334888     a.u. after    2 cycles
 Optimization completed.
    -- Stationary point found.
 Normal termination of Gaussian 16 at Mon Feb  6 10:23:24 2023.

 ---------------------------------------------------------------------
 #T Geom=AllCheck Guess=TCheck SCRF=Check GenChk RwB97XD/def2SVPP Freq
 ---------------------------------------------------------------------
 Structure from the checkpoint file:  "13.chk"
 -------
 Monomer
 -------
 Charge =  0 Multiplicity = 1

                         Standard orientation:
 ---------------------------------------------------------------------
 Center     Atomic      Atomic             Coordinates (Angstroms)
 Number     Number       Type             X           Y           Z
 ---------------------------------------------------------------------
      1          7           0        0.217153    1.401080   -0.725822
      2          6           0        0.040711    0.710925    0.552845
      3          6           0       -1.304753   -0.023470    0.584803
      4          8           0       -1.497832   -0.865552   -0.515153
      5          6           0        1.214190   -0.275753    0.681851
      6          8           0        1.302367   -1.039796   -0.495286
      7          1           0        0.706464    2.287703   -0.629774
      8          1           0       -0.665213    1.553793   -1.209942
      9          1           0        0.055176    1.403297    1.418408
     10          1           0       -2.127289    0.714545    0.573201
     11          1           0       -1.376362   -0.572624    1.548494
     12          1           0       -0.672900   -1.367718   -0.642768
     13          1           0        1.064788   -0.966577    1.528429
     14          1           0        2.156444    0.282272    0.865196
     15          1           0        1.201656   -0.369672   -1.203973
 ---------------------------------------------------------------------

 SCF Done:  E(RwB97XD) =  -324.547334888     a.u. after    1 cycles

 The electronic state is 1-A.
 Alpha  occ. eigenvalues --  -19.24870 -19.23495 -14.43631 -10.33798 -10.33716
 Alpha  occ. eigenvalues --  -10.33119  -1.12288  -1.09781  -0.98631  -0.83607
 Alpha  occ. eigenvalues --   -0.76091  -0.68692  -0.61513  -0.60315  -0.57309
 Alpha  occ. eigenvalues --   -0.56485  -0.52781  -0.49262  -0.48981  -0.48455
 Alpha  occ. eigenvalues --   -0.42273  -0.41250  -0.35569  -0.35219  -0.33181
 Alpha virt. eigenvalues --    0.11976   0.16226   0.17489   0.18717   0.19023
 Alpha virt. eigenvalues --    0.20323   0.23140   0.23382   0.24872   0.27406
 Alpha virt. eigenvalues --    0.29449   0.29922   0.33562   0.36286   0.54528

 Mulliken charges:
               1
     1  N   -0.531848
     2  C   -0.168374
     3  C    0.044017
     4  O   -0.507929
     5  C    0.057462
     6  O   -0.511173
     7  H    0.233832
     8  H    0.244005
     9  H    0.095827
    10  H    0.102066
    11  H    0.092521
    12  H    0.318715
    13  H    0.108548
    14  H    0.094064
    15  H    0.328268
 Sum of Mulliken charges =   0.00000

 Dipole moment (field-independent basis, Debye):
    X=              0.5713    Y=              3.0806    Z=              1.3056  Tot=              3.3943
  Exact polarizability:  45.999  -0.195  44.234   0.751  -0.672  44.706
 Approx polarizability:  45.708  -0.255  46.841   1.205   0.546  48.378
   1 Symmetry operations used in ECPInt.
 ECPInt:  NShTT=    1485 NPrTT=    5991 LenC2=    1481 LenP2D=    4984.
 LDataN:  DoStor=T MaxTD1= 6 Len=  172
 Calling FoFJK, ICntrl=    100127 FMM=F ISym2X=0 I1Cent= 0 IOpClX= 0 NMat=1 NMatS=1 NMatT=0.
 Full mass-weighted force constant matrix:
 Low frequencies ---  -18.4700   -8.2857   -0.0013   -0.0012   -0.0012    9.3066
 Low frequencies ---  100.7096  156.0520  204.4130
 Diagonal vibrational polarizability:

                      1                      2                      3
                      A                      A                      A
 Frequencies --    100.6790               156.0081               204.3897
 Red. masses --      1.7313                 2.0930                 2.5112
 Frc consts  --      0.0103                 0.0300                 0.0618
 IR Inten    --     17.9211                 8.4013                 2.1897

                      4                      5                      6
                      A                      A                      A
 Frequencies --    273.3162               337.7397               399.7449
 Red. masses --      3.9095                 3.5878                 1.7938
 Frc consts  --      0.1721                 0.2411                 0.1689
 IR Inten    --      5.5525                 2.6212                 7.5631

                      7                      8                      9
                      A                      A                      A
 Frequencies --    491.3527               568.8806               755.2031
 Red. masses --      1.9252                 1.3641                 1.9907
 Frc consts  --      0.2738                 0.2601                 0.6689
 IR Inten    --     42.0225               191.4704                95.2953

                     10                     11                     12
                      A                      A                      A
 Frequencies --    788.3255               830.0266               871.8524
 Red. masses --      1.5846                 1.8380                 1.7508
 Frc consts  --      0.5802                 0.7461                 0.7841
 IR Inten    --     36.3588                38.2499               123.0327

                     13                     14                     15
                      A                      A                      A
 Frequencies --    955.4567              1000.8390              1023.3109
 Red. masses --      1.7563                 1.5898                 1.9707
 Frc consts  --      0.9447                 0.9382                 1.2159
 IR Inten    --      8.3874                 4.0346                 4.7250

                     16                     17                     18
                      A                      A                      A
 Frequencies --   1109.7643              1128.4066              1174.7465
 Red. masses --      1.7648                 2.7249                 2.2798
 Frc consts  --      1.2806                 2.0443                 1.8537
 IR Inten    --     15.8776                75.5126                94.1634

                     19                     20                     21
                      A                      A                      A
 Frequencies --   1217.3265              1241.5463              1262.6658
 Red. masses --      1.3151                 1.2858                 1.1536
 Frc consts  --      1.1482                 1.1678                 1.0836
 IR Inten    --     11.6410                23.6803                 2.2397

                     22                     23                     24
                      A                      A                      A
 Frequencies --   1370.7844              1377.9791              1413.4325
 Red. masses --      1.4616                 1.4814                 1.3508
 Frc consts  --      1.6182                 1.6573                 1.5899
 IR Inten    --     12.7524                 8.2165                 3.6871

                     25                     26                     27
                      A                      A                      A
 Frequencies --   1419.7276              1462.6792              1486.9397
 Red. masses --      1.4763                 1.3244                 1.2837
 Frc consts  --      1.7532                 1.6694                 1.6723
 IR Inten    --      2.8524                58.5668               120.2513

                     28                     29                     30
                      A                      A                      A
 Frequencies --   1511.8327              1524.7143              1648.9596
 Red. masses --      1.0910                 1.0945                 1.1039
 Frc consts  --      1.4692                 1.4991                 1.7684
 IR Inten    --      9.2701                 1.0356                44.2965

                     31                     32                     33
                      A                      A                      A
 Frequencies --   2983.1280              2995.2435              3020.0463
 Red. masses --      1.0705                 1.0719                 1.0863
 Frc consts  --      5.6130                 5.6661                 5.8378
 IR Inten    --     54.4856                56.3222                86.0696

                     34                     35                     36
                      A                      A                      A
 Frequencies --   3077.7443              3108.6426              3528.0763
 Red. masses --      1.0979                 1.0981                 1.0505
 Frc consts  --      6.1272                 6.2523                 7.7041
 IR Inten    --     44.8907                33.5399                13.3561

                     37                     38                     39
                      A                      A                      A
 Frequencies --   3550.1819              3619.1175              3649.1627
 Red. masses --      1.0636                 1.0965                 1.0657
 Frc consts  --      7.8979                 8.4618                 8.3616
 IR Inten    --     92.0682                14.3866               152.2541

 Optimization completed.
    -- Stationary point found.
 Normal termination of Gaussian 16 at Mon Feb  6 10:24:18 2023.
