 Gaussian 16, Revision B.01,
 Gaussian 16:  ES64L-G16RevB.01 20-Dec-2017

 ----------------------------------------------------------------------
 #T wB97XD/def2svpp opt=tight freq int(grid=ultrafine) scf=(verytight,q
 c)
 ----------------------------------------------------------------------
 --------------
 Comment gs min
 --------------
 Symbolic Z-matrix:
 Charge =  0 Multiplicity = 1

 SCF Done:  E(RwB97XD) =  -40.4631153931     a.u. after    5 cycles
 SCF Done:  E(RwB97XD) =  -40.4633532997     a.u. after    3 cycles
 SCF Done:  E(RwB97XD) =  -40.4633538463     a.u. after    2 cycles
 Optimization completed.
    -- Stationary point found.
 Normal termination of Gaussian 16 at Thu Aug  4 16:13:29 2022.

 ---------------------------------------------------------------------
 #T Geom=AllCheck Guess=TCheck SCRF=Check GenChk RwB97XD/def2SVPP Freq
 ---------------------------------------------------------------------
 Structure from the checkpoint file:  "/scratch/user/peterchao1/peterchao1/6097823_1659647596000000892845995/Gau-190204.chk"
 --------------
 Comment gs min
 --------------
 Charge =  0 Multiplicity = 1

                         Standard orientation:
 ---------------------------------------------------------------------
 Center     Atomic      Atomic             Coordinates (Angstroms)
 Number     Number       Type             X           Y           Z
 ---------------------------------------------------------------------
      1          6           0        0.000003   -0.000001    0.000000
      2          1           0       -0.332295   -1.047853   -0.076003
      3          1           0       -0.565310    0.507627    0.798082
      4          1           0       -0.178145    0.512309   -0.959163
      5          1           0        1.075735    0.027921    0.237083
 ---------------------------------------------------------------------

 SCF Done:  E(RwB97XD) =  -40.4633538463     a.u. after    1 cycles

 The electronic state is 1-A.
 Alpha  occ. eigenvalues --  -10.27467  -0.77918  -0.47412  -0.47412  -0.47412
 Alpha virt. eigenvalues --    0.15714   0.22688   0.22688   0.22688   0.51096
 Alpha virt. eigenvalues --    0.51096   0.51097   0.76612   0.80744   0.80744
 Alpha virt. eigenvalues --    0.80744   0.86977   1.73418   1.73419   2.21922

 Mulliken charges:
               1
     1  C   -0.532217
     2  H    0.133054
     3  H    0.133053
     4  H    0.133054
     5  H    0.133055
 Sum of Mulliken charges =   0.00000

 Dipole moment (field-independent basis, Debye):
    X=             -0.0000    Y=             -0.0000    Z=              0.0000  Tot=              0.0000
  Exact polarizability:  12.260  -0.002  12.258  -0.001  -0.001  12.263
 Approx polarizability:  11.160  -0.000  11.160  -0.000   0.000  11.160
   1 Symmetry operations used in ECPInt.
 ECPInt:  NShTT=     105 NPrTT=     431 LenC2=     106 LenP2D=     417.
 LDataN:  DoStor=T MaxTD1= 6 Len=  172
 Calling FoFJK, ICntrl=    100127 FMM=F ISym2X=0 I1Cent= 0 IOpClX= 0 NMat=1 NMatS=1 NMatT=0.
 Full mass-weighted force constant matrix:
 Low frequencies ---  -49.3030   -0.0006   -0.0004    0.0012   22.5877   38.1748
 Low frequencies --- 1340.2260 1340.3356 1340.5466
 Diagonal vibrational polarizability:

                      1                      2                      3
                      A                      A                      A
 Frequencies --   1340.2260              1340.3356              1340.5466
 Red. masses --      1.1750                 1.1750                 1.1750
 Frc consts  --      1.2435                 1.2437                 1.2441
 IR Inten    --     21.6549                21.6621                21.6757

                      4                      5                      6
                      A                      A                      A
 Frequencies --   1548.2893              1548.3486              3020.4791
 Red. masses --      1.0078                 1.0078                 1.0078
 Frc consts  --      1.4234                 1.4236                 5.4174
 IR Inten    --      0.0000                 0.0000                 0.0001

                      7                      8                      9
                      A                      A                      A
 Frequencies --   3167.1497              3167.4020              3167.8389
 Red. masses --      1.1051                 1.1051                 1.1051
 Frc consts  --      6.5313                 6.5324                 6.5342
 IR Inten    --     14.2510                14.3207                14.3385

 Optimization completed.
    -- Stationary point found.
 Normal termination of Gaussian 16 at Thu Aug  4 16:13:37 2022.
