 Gaussian 16, Revision B.01,
 Gaussian 16:  ES64L-G16RevB.01 20-Dec-2017

 ----------------------------------------------------------------------
 #T wB97XD/def2svpp opt=tight freq int(grid=ultrafine) scf=(verytight,q
 c) Volume=tight
 ----------------------------------------------------------------------
 -------
 Monomer
 -------
 Symbolic Z-matrix:
 Charge =  0 Multiplicity = 1

 SCF Done:  E(RwB97XD) =  -308.535741238     a.u. after    7 cycles
 SCF Done:  E(RwB97XD) =  -308.537283639     a.u. after    6 cycles
 SCF Done:  E(RwB97XD) =  -308.537383252     a.u. after    5 cycles
 SCF Done:  E(RwB97XD) =  -308.537419976     a.u. after    6 cycles
 SCF Done:  E(RwB97XD) =  -308.537456534     a.u. after    4 cycles
 SCF Done:  E(RwB97XD) =  -308.537478365     a.u. after    4 cycles
 SCF Done:  E(RwB97XD) =  -308.537482879     a.u. after    3 cycles
 SCF Done:  E(RwB97XD) =  -308.537483118     a.u. after    2 cycles
 SCF Done:  E(RwB97XD) =  -308.537483137     a.u. after    2 cycles
 SCF Done:  E(RwB97XD) =  -308.537483137     a.u. after    2 cycles
 SCF Done:  E(RwB97XD) =  -308.537483136     a.u. after    2 cycles
 SCF Done:  E(RwB97XD) =  -308.537483138     a.u. after    2 cycles
 SCF Done:  E(RwB97XD) =  -308.537483136     a.u. after    2 cycles
 Optimization completed.
    -- Stationary point found.

 1\1\GINC-C200\FOpt\RwB97XD\def2SVPP\C4H10O2\PETERCHAO1\29-Mar-2024\0\\
 #T wB97XD/def2svpp opt=tight freq int(grid=ultrafine) scf=(verytight,q
 c) Volume=tight\\Monomer\\0,1\C,-0.5426019777,-1.4705324892,-0.4295936
 171\C,-0.4459789558,0.0038086801,-0.0385745626\C,-1.6669637066,0.79207
 06672,-0.5074876126\O,-0.2999288907,0.1208773813,1.3767017911\C,0.8471
 226219,0.6287616725,-0.578460954\O,1.9787552151,0.0140818675,-0.035675
 4365\H,-1.4132218843,-1.9480926631,0.0578164436\H,0.3735804829,-2.0009
 069209,-0.1245987393\H,-0.6652791962,-1.5852982673,-1.5200967559\H,-1.

 Normal termination of Gaussian 16 at Fri Mar 29 15:38:20 2024.

 ---------------------------------------------------------------------
 #T Geom=AllCheck Guess=TCheck SCRF=Check GenChk RwB97XD/def2SVPP Freq
 ---------------------------------------------------------------------
 Structure from the checkpoint file:  "monomer.chk"
 -------
 Monomer
 -------
 Charge =  0 Multiplicity = 1

                         Standard orientation:
 ---------------------------------------------------------------------
 Center     Atomic      Atomic             Coordinates (Angstroms)
 Number     Number       Type             X           Y           Z
 ---------------------------------------------------------------------
      1          6           0        0.510341    1.403174   -0.582451
      2          6           0        0.395964   -0.002434    0.006699
      3          6           0        1.636832   -0.840975   -0.291858
      4          8           0        0.186007    0.078986    1.416426
      5          6           0       -0.871450   -0.704904   -0.497636
      6          8           0       -2.026419   -0.027326   -0.097669
      7          1           0        1.358064    1.949721   -0.128290
      8          1           0       -0.418648    1.965315   -0.396207
      9          1           0        0.682252    1.364820   -1.671668
     10          1           0        1.772114   -0.984340   -1.378167
     11          1           0        1.555551   -1.830392    0.188688
     12          1           0        2.543341   -0.343847    0.098341
     13          1           0        0.842476    0.675460    1.799524
     14          1           0       -0.862792   -1.749396   -0.120145
     15          1           0       -0.869098   -0.742456   -1.599629
     16          1           0       -1.910078    0.152669    0.848973
 ---------------------------------------------------------------------

 SCF Done:  E(RwB97XD) =  -308.537483136     a.u. after    1 cycles

 The electronic state is 1-A.
 Alpha  occ. eigenvalues --  -19.25881 -19.23689 -10.35314 -10.32883 -10.28832
 Alpha  occ. eigenvalues --  -10.28621  -1.13043  -1.09544  -0.88052  -0.78690
 Alpha  occ. eigenvalues --   -0.76531  -0.68176  -0.58908  -0.58274  -0.55718
 Alpha  occ. eigenvalues --   -0.51888  -0.50728  -0.49294  -0.48057  -0.46113
 Alpha  occ. eigenvalues --   -0.44424  -0.42667  -0.39848  -0.36561  -0.34385
 Alpha virt. eigenvalues --    0.11613   0.16478   0.17198   0.18128   0.19556
 Alpha virt. eigenvalues --    0.20308   0.21970   0.23074   0.24125   0.26523
 Alpha virt. eigenvalues --    0.28948   0.29468   0.30919   0.32167   0.34669

 Mulliken charges:
               1
     1  C   -0.283438
     2  C   -0.076241
     3  C   -0.271840
     4  O   -0.503277
     5  C    0.085903
     6  O   -0.492272
     7  H    0.104358
     8  H    0.133916
     9  H    0.117729
    10  H    0.117342
    11  H    0.127791
    12  H    0.107493
    13  H    0.319632
    14  H    0.091569
    15  H    0.098411
    16  H    0.322925
 Sum of Mulliken charges =  -0.00000

 Dipole moment (field-independent basis, Debye):
    X=              2.5492    Y=              0.5944    Z=              0.3719  Tot=              2.6439
  Exact polarizability:  50.665   0.158  49.568  -0.084   1.180  47.973
 Approx polarizability:  51.266   0.309  49.492  -0.155   1.513  53.105
   1 Symmetry operations used in ECPInt.
 ECPInt:  NShTT=    1596 NPrTT=    6436 LenC2=    1594 LenP2D=    5358.
 LDataN:  DoStor=T MaxTD1= 6 Len=  172
 Calling FoFJK, ICntrl=    100127 FMM=F ISym2X=0 I1Cent= 0 IOpClX= 0 NMat=1 NMatS=1 NMatT=0.
 Full mass-weighted force constant matrix:
 Low frequencies ---   -0.0009   -0.0008   -0.0005    3.3562    8.6551    9.7358
 Low frequencies ---  147.7328  234.4344  250.2964
 Diagonal vibrational polarizability:

                      1                      2                      3
                      A                      A                      A
 Frequencies --    147.7291               234.4336               250.2963
 Red. masses --      2.7422                 1.1399                 2.1264
 Frc consts  --      0.0353                 0.0369                 0.0785
 IR Inten    --      6.2736                 1.6369                 0.4591

                      4                      5                      6
                      A                      A                      A
 Frequencies --    275.9519               298.5238               347.4425
 Red. masses --      1.0973                 1.1471                 2.2556
 Frc consts  --      0.0492                 0.0602                 0.1604
 IR Inten    --     29.0002                71.8077                 6.3617

                      7                      8                      9
                      A                      A                      A
 Frequencies --    374.1284               420.8752               477.7091
 Red. masses --      2.5129                 2.2293                 2.8189
 Frc consts  --      0.2072                 0.2327                 0.3790
 IR Inten    --     16.7202                 2.7614                17.7715

                     10                     11                     12
                      A                      A                      A
 Frequencies --    512.6603               589.1880               789.9614
 Red. masses --      1.2709                 2.9185                 3.7311
 Frc consts  --      0.1968                 0.5969                 1.3718
 IR Inten    --    135.1900                31.1546                12.5183

                     13                     14                     15
                      A                      A                      A
 Frequencies --    921.6189               942.4590               961.8177
 Red. masses --      1.7114                 1.6209                 1.7078
 Frc consts  --      0.8565                 0.8483                 0.9308
 IR Inten    --      5.3253                 9.8314                23.9016

                     16                     17                     18
                      A                      A                      A
 Frequencies --   1004.6796              1043.7282              1142.8465
 Red. masses --      1.4692                 1.4256                 1.9395
 Frc consts  --      0.8737                 0.9150                 1.4925
 IR Inten    --      0.1878                10.6620               106.9523

                     19                     20                     21
                      A                      A                      A
 Frequencies --   1168.1184              1209.4575              1250.1376
 Red. masses --      1.8239                 1.6652                 2.6980
 Frc consts  --      1.4663                 1.4352                 2.4843
 IR Inten    --    105.9460                 6.3587                20.5729

                     22                     23                     24
                      A                      A                      A
 Frequencies --   1295.1479              1382.9239              1400.8603
 Red. masses --      2.0036                 1.3130                 1.4551
 Frc consts  --      1.9801                 1.4794                 1.6824
 IR Inten    --     37.8277                14.9463                44.6569

                     25                     26                     27
                      A                      A                      A
 Frequencies --   1414.7818              1423.7900              1456.8200
 Red. masses --      1.4128                 1.3308                 1.3200
 Frc consts  --      1.6662                 1.5895                 1.6506
 IR Inten    --     28.8291                16.9631                43.5028

                     28                     29                     30
                      A                      A                      A
 Frequencies --   1478.0652              1479.4923              1495.2765
 Red. masses --      1.0523                 1.0743                 1.0709
 Frc consts  --      1.3545                 1.3855                 1.4107
 IR Inten    --      0.9949                 2.0897                 3.3361

                     31                     32                     33
                      A                      A                      A
 Frequencies --   1508.4565              1512.0434              2996.8770
 Red. masses --      1.1037                 1.1301                 1.0707
 Frc consts  --      1.4797                 1.5223                 5.6656
 IR Inten    --      2.7746                22.0911                64.8630

                     34                     35                     36
                      A                      A                      A
 Frequencies --   3028.2015              3032.1801              3112.4338
 Red. masses --      1.0394                 1.0394                 1.0983
 Frc consts  --      5.6155                 5.6304                 6.2688
 IR Inten    --     13.4871                19.8641                15.6019

                     37                     38                     39
                      A                      A                      A
 Frequencies --   3117.1038              3122.3383              3139.2445
 Red. masses --      1.1028                 1.1025                 1.1052
 Frc consts  --      6.3134                 6.3328                 6.4172
 IR Inten    --      4.1684                42.0446                17.9419

                     40                     41                     42
                      A                      A                      A
 Frequencies --   3154.4404              3721.2340              3781.3104
 Red. masses --      1.1044                 1.0646                 1.0663
 Frc consts  --      6.4749                 8.6859                 8.9824
 IR Inten    --      8.4672                52.3138                30.0425

 Optimization completed.
    -- Stationary point found.

 1\1\GINC-C200\Freq\RwB97XD\def2SVPP\C4H10O2\PETERCHAO1\29-Mar-2024\0\\
 #T Geom=AllCheck Guess=TCheck SCRF=Check GenChk RwB97XD/def2SVPP Freq\
 \Monomer\\0,1\C,-0.5426019777,-1.4705324892,-0.4295936171\C,-0.4459789
 558,0.0038086801,-0.0385745626\C,-1.6669637066,0.7920706672,-0.5074876
 126\O,-0.2999288907,0.1208773813,1.3767017911\C,0.8471226219,0.6287616
 725,-0.578460954\O,1.9787552151,0.0140818675,-0.0356754365\H,-1.413221
 8843,-1.9480926631,0.0578164436\H,0.3735804829,-2.0009069209,-0.124598
 7393\H,-0.6652791962,-1.5852982673,-1.5200967559\H,-1.752525073,0.7816

 Normal termination of Gaussian 16 at Fri Mar 29 15:39:18 2024.
