 Gaussian 16, Revision B.01,
 Gaussian 16:  ES64L-G16RevB.01 20-Dec-2017

 ----------------------------------------------------------------------
 #T wB97XD/def2svpp opt=tight freq int(grid=ultrafine) scf=(verytight,q
 c) Volume=tight
 ----------------------------------------------------------------------
 -------
 Monomer
 -------
 Symbolic Z-matrix:
 Charge =  0 Multiplicity = 1

 SCF Done:  E(RwB97XD) =  -268.101685382     a.u. after    7 cycles
 Optimization completed.
    -- Stationary point found.
 Normal termination of Gaussian 16 at Mon Feb  6 10:22:55 2023.

 ---------------------------------------------------------------------
 #T Geom=AllCheck Guess=TCheck SCRF=Check GenChk RwB97XD/def2SVPP Freq
 ---------------------------------------------------------------------
 Structure from the checkpoint file:  "12.chk"
 -------
 Monomer
 -------
 Charge =  0 Multiplicity = 1

                         Standard orientation:
 ---------------------------------------------------------------------
 Center     Atomic      Atomic             Coordinates (Angstroms)
 Number     Number       Type             X           Y           Z
 ---------------------------------------------------------------------
      1          6           0       -1.963188    0.098913   -0.000002
      2          6           0       -0.691512   -0.736137    0.000002
      3          6           0        0.564691    0.101466    0.000000
      4          8           0        1.671679   -0.660625   -0.000002
      5          8           0        0.611100    1.302349    0.000001
      6          1           0       -2.852085   -0.553147   -0.000007
      7          1           0       -2.008617    0.749819   -0.888091
      8          1           0       -2.008625    0.749815    0.888089
      9          1           0       -0.644011   -1.404285   -0.878388
     10          1           0       -0.644012   -1.404277    0.878399
     11          1           0        2.435176   -0.057172   -0.000002
 ---------------------------------------------------------------------

 SCF Done:  E(RwB97XD) =  -268.101685382     a.u. after    1 cycles

 The electronic state is 1-A.
 Alpha  occ. eigenvalues --  -19.30235 -19.24611 -10.43042 -10.31072 -10.28891
 Alpha  occ. eigenvalues --   -1.20475  -1.10805  -0.88248  -0.76759  -0.67788
 Alpha  occ. eigenvalues --   -0.58979  -0.57436  -0.57041  -0.50848  -0.49799
 Alpha  occ. eigenvalues --   -0.46801  -0.45138  -0.43546  -0.40920  -0.36419
 Alpha virt. eigenvalues --    0.08811   0.13766   0.14898   0.19390   0.19878
 Alpha virt. eigenvalues --    0.21582   0.24636   0.29645   0.31140   0.35821
 Alpha virt. eigenvalues --    0.40276   0.50359   0.53972   0.54569   0.58593

 Mulliken charges:
               1
     1  C   -0.316684
     2  C   -0.274616
     3  C    0.189167
     4  O   -0.371443
     5  O   -0.240842
     6  H    0.123683
     7  H    0.132949
     8  H    0.132948
     9  H    0.144338
    10  H    0.144338
    11  H    0.336163
 Sum of Mulliken charges =  -0.00000

 Dipole moment (field-independent basis, Debye):
    X=              0.1366    Y=             -1.4874    Z=              0.0000  Tot=              1.4937
  Exact polarizability:  41.445  -0.109  38.439  -0.000  -0.000  28.070
 Approx polarizability:  37.885  -0.836  45.817  -0.000   0.000  30.573
   1 Symmetry operations used in ECPInt.
 ECPInt:  NShTT=     903 NPrTT=    3653 LenC2=     901 LenP2D=    3054.
 LDataN:  DoStor=T MaxTD1= 6 Len=  172
 Calling FoFJK, ICntrl=    100127 FMM=F ISym2X=0 I1Cent= 0 IOpClX= 0 NMat=1 NMatS=1 NMatT=0.
 Full mass-weighted force constant matrix:
 Low frequencies ---  -11.9095   -6.8281   -5.7391   -0.0007    0.0004    0.0005
 Low frequencies ---   49.3861  220.7221  256.6111
 Diagonal vibrational polarizability:

                      1                      2                      3
                      A                      A                      A
 Frequencies --     48.9512               220.7191               256.6105
 Red. masses --      2.1607                 1.1184                 3.6114
 Frc consts  --      0.0031                 0.0321                 0.1401
 IR Inten    --      0.0039                 0.0000                 2.8657

                      4                      5                      6
                      A                      A                      A
 Frequencies --    479.3028               528.9307               632.5145
 Red. masses --      4.4000                 1.5590                 3.9433
 Frc consts  --      0.5956                 0.2570                 0.9295
 IR Inten    --     19.8237                21.8071                23.8840

                      7                      8                      9
                      A                      A                      A
 Frequencies --    687.3139               829.7867               841.1135
 Red. masses --      1.2806                 1.4355                 2.6789
 Frc consts  --      0.3564                 0.5824                 1.1167
 IR Inten    --    100.8345                26.6213                15.8764

                     10                     11                     12
                      A                      A                      A
 Frequencies --   1028.6693              1113.1151              1121.5049
 Red. masses --      1.5093                 2.4126                 1.7550
 Frc consts  --      0.9410                 1.7612                 1.3006
 IR Inten    --      3.8147                25.0614                 0.7676

                     13                     14                     15
                      A                      A                      A
 Frequencies --   1220.1066              1289.3498              1327.9416
 Red. masses --      2.3796                 1.1786                 1.5006
 Frc consts  --      2.0872                 1.1544                 1.5591
 IR Inten    --    263.1259                 0.1572                 1.3271

                     16                     17                     18
                      A                      A                      A
 Frequencies --   1422.2668              1457.4288              1459.0885
 Red. masses --      1.2979                 1.8856                 1.1964
 Frc consts  --      1.5469                 2.3598                 1.5007
 IR Inten    --     28.9095                37.0351                28.3333

                     19                     20                     21
                      A                      A                      A
 Frequencies --   1490.1233              1497.1722              1908.4978
 Red. masses --      1.0346                 1.1454                10.3256
 Frc consts  --      1.3536                 1.5127                22.1589
 IR Inten    --      9.5659                28.2890               297.1760

                     22                     23                     24
                      A                      A                      A
 Frequencies --   3051.3360              3056.8137              3106.0832
 Red. masses --      1.0379                 1.0650                 1.1027
 Frc consts  --      5.6936                 5.8630                 6.2680
 IR Inten    --     20.8497                 6.3689                 2.4881

                     25                     26                     27
                      A                      A                      A
 Frequencies --   3146.3285              3152.4662              3702.9906
 Red. masses --      1.1057                 1.1051                 1.0640
 Frc consts  --      6.4489                 6.4708                 8.5961
 IR Inten    --     14.1250                12.9888                74.1934

 Optimization completed.
    -- Stationary point found.
 Normal termination of Gaussian 16 at Mon Feb  6 10:23:37 2023.
