 Gaussian 16, Revision B.01,
 Gaussian 16:  ES64L-G16RevB.01 20-Dec-2017

 ----------------------------------------------------------------------
 #T wB97XD/def2svpp opt=tight freq int(grid=ultrafine) scf=(verytight,q
 c) Volume=tight
 ----------------------------------------------------------------------
 -----
 Dimer
 -----
 Symbolic Z-matrix:
 Charge =  0 Multiplicity = 1

 SCF Done:  E(RwB97XD) =  -852.717924457     a.u. after    7 cycles
 SCF Done:  E(RwB97XD) =  -852.722474400     a.u. after    8 cycles
 SCF Done:  E(RwB97XD) =  -852.722785492     a.u. after    7 cycles
 SCF Done:  E(RwB97XD) =  -852.723206632     a.u. after    7 cycles
 SCF Done:  E(RwB97XD) =  -852.723391879     a.u. after    8 cycles
 SCF Done:  E(RwB97XD) =  -852.723569258     a.u. after    7 cycles
 SCF Done:  E(RwB97XD) =  -852.723685451     a.u. after    7 cycles
 SCF Done:  E(RwB97XD) =  -852.723789794     a.u. after    5 cycles
 SCF Done:  E(RwB97XD) =  -852.723819047     a.u. after    5 cycles
 SCF Done:  E(RwB97XD) =  -852.723830063     a.u. after    4 cycles
 SCF Done:  E(RwB97XD) =  -852.723858019     a.u. after    2 cycles
 SCF Done:  E(RwB97XD) =  -852.723858026     a.u. after    2 cycles
 SCF Done:  E(RwB97XD) =  -852.723858039     a.u. after    2 cycles
 SCF Done:  E(RwB97XD) =  -852.723858044     a.u. after    2 cycles
 SCF Done:  E(RwB97XD) =  -852.723858038     a.u. after    2 cycles
 SCF Done:  E(RwB97XD) =  -852.723858057     a.u. after    2 cycles
 SCF Done:  E(RwB97XD) =  -852.723858047     a.u. after    2 cycles
 SCF Done:  E(RwB97XD) =  -852.723858061     a.u. after    2 cycles
 SCF Done:  E(RwB97XD) =  -852.723858046     a.u. after    2 cycles
 Optimization completed.
    -- Stationary point found.
 Normal termination of Gaussian 16 at Mon Feb  6 11:50:27 2023.

 ---------------------------------------------------------------------
 #T Geom=AllCheck Guess=TCheck SCRF=Check GenChk RwB97XD/def2SVPP Freq
 ---------------------------------------------------------------------
 Structure from the checkpoint file:  "11.chk"
 -----
 Dimer
 -----
 Charge =  0 Multiplicity = 1

                         Standard orientation:
 ---------------------------------------------------------------------
 Center     Atomic      Atomic             Coordinates (Angstroms)
 Number     Number       Type             X           Y           Z
 ---------------------------------------------------------------------
      1          6           0       -5.170817    0.311802   -0.886236
      2          6           0       -4.302948   -0.518466    0.058324
      3          6           0       -2.770909   -0.334127   -0.049520
      4          6           0       -2.364087    1.150957    0.038083
      5          6           0       -2.564349    1.839773    1.385419
      6          6           0       -2.168104   -1.178473    1.100654
      7          8           0       -0.765737   -1.320502    1.079538
      8          6           0       -2.281697   -0.895568   -1.405242
      9          8           0       -0.873915   -0.951494   -1.523727
     10          1           0       -4.895687    0.163578   -1.944661
     11          1           0       -5.104055    1.390927   -0.668618
     12          1           0       -6.229897    0.021967   -0.778801
     13          1           0       -4.530473   -1.589470   -0.100092
     14          1           0       -4.612113   -0.303971    1.098157
     15          1           0       -2.918750    1.702945   -0.740791
     16          1           0       -1.312124    1.246038   -0.265070
     17          1           0       -1.880626    1.442838    2.154729
     18          1           0       -3.599698    1.736282    1.755802
     19          1           0       -2.350683    2.918240    1.295191
     20          1           0       -2.571775   -2.203824    1.026609
     21          1           0       -2.505355   -0.774092    2.074120
     22          1           0       -0.296063   -0.497465    1.351510
     23          1           0       -2.644320   -0.265091   -2.233846
     24          1           0       -2.706082   -1.910867   -1.550746
     25          1           0       -0.563470   -1.355317   -0.684494
     26          6           0        5.127590   -0.117542   -0.992682
     27          6           0        4.285417    0.550985    0.093256
     28          6           0        2.755584    0.350984    0.006296
     29          6           0        2.369179   -1.137140   -0.091715
     30          6           0        2.778758   -2.032657    1.073497
     31          6           0        2.155529    1.002968    1.272260
     32          8           0        0.745771    0.952039    1.336336
     33          6           0        2.220457    1.088872   -1.246934
     34          8           0        0.817136    1.247699   -1.283538
     35          1           0        6.192112    0.139474   -0.859019
     36          1           0        4.836697    0.207111   -2.006341
     37          1           0        5.048396   -1.217175   -0.955746
     38          1           0        4.493056    1.637670    0.088396
     39          1           0        4.632501    0.190198    1.078913
     40          1           0        2.783471   -1.544242   -1.031801
     41          1           0        1.278403   -1.199394   -0.196757
     42          1           0        3.869548   -2.023575    1.244789
     43          1           0        2.482090   -3.075167    0.870286
     44          1           0        2.279693   -1.735256    2.010977
     45          1           0        2.490254    2.059650    1.320539
     46          1           0        2.539253    0.504262    2.177084
     47          1           0        0.447342    1.294040    0.466320
     48          1           0        2.568696    0.575201   -2.163026
     49          1           0        2.637092    2.111715   -1.265252
     50          1           0        0.338911    0.436634   -1.569997
 ---------------------------------------------------------------------

 SCF Done:  E(RwB97XD) =  -852.723858046     a.u. after    1 cycles

 The electronic state is 1-A.
 Alpha  occ. eigenvalues --  -19.25331 -19.25263 -19.24961 -19.24914 -10.33886
 Alpha  occ. eigenvalues --  -10.33687 -10.33658 -10.33529 -10.30622 -10.30539
 Alpha  occ. eigenvalues --  -10.29608 -10.29525 -10.28733 -10.28710 -10.28611
 Alpha  occ. eigenvalues --  -10.28537 -10.27945 -10.27926  -1.13083  -1.11856
 Alpha  occ. eigenvalues --   -1.10481  -1.09274  -0.92202  -0.92018  -0.84124
 Alpha  occ. eigenvalues --   -0.84055  -0.81667  -0.81085  -0.76923  -0.76311
 Alpha  occ. eigenvalues --   -0.72688  -0.71631  -0.71011  -0.70851  -0.64146
 Alpha  occ. eigenvalues --   -0.63585  -0.62094  -0.61455  -0.58730  -0.57667
 Alpha  occ. eigenvalues --   -0.57090  -0.56046  -0.54783  -0.53981  -0.53656
 Alpha  occ. eigenvalues --   -0.53033  -0.51401  -0.51146  -0.50031  -0.49601
 Alpha  occ. eigenvalues --   -0.49361  -0.49089  -0.48702  -0.48425  -0.47452
 Alpha  occ. eigenvalues --   -0.46483  -0.45767  -0.45204  -0.44986  -0.44468
 Alpha  occ. eigenvalues --   -0.43757  -0.43338  -0.43004  -0.42191  -0.41469
 Alpha  occ. eigenvalues --   -0.41092  -0.40179  -0.39344  -0.39100  -0.38204
 Alpha  occ. eigenvalues --   -0.36166  -0.35365  -0.34423  -0.33936
 Alpha virt. eigenvalues --    0.12513   0.12829   0.14694   0.15381   0.15475
 Alpha virt. eigenvalues --    0.15890   0.16198   0.17731   0.18325   0.18620
 Alpha virt. eigenvalues --    0.19018   0.19412   0.19750   0.20560   0.20851

 Mulliken charges:
               1
     1  C   -0.319075
     2  C   -0.196992
     3  C   -0.307496
     4  C   -0.225499
     5  C   -0.320074
     6  C    0.055295
     7  O   -0.547761
     8  C    0.085750
     9  O   -0.547252
    10  H    0.122820
    11  H    0.127868
    12  H    0.123157
    13  H    0.102233
    14  H    0.109377
    15  H    0.105929
    16  H    0.104452
    17  H    0.130877
    18  H    0.114802
    19  H    0.123991
    20  H    0.099265
    21  H    0.109067
    22  H    0.356435
    23  H    0.107118
    24  H    0.090923
    25  H    0.388238
    26  C   -0.320388
    27  C   -0.195815
    28  C   -0.311593
    29  C   -0.201547
    30  C   -0.318884
    31  C    0.076643
    32  O   -0.536431
    33  C    0.070576
    34  O   -0.545987
    35  H    0.123862
    36  H    0.122168
    37  H    0.127712
    38  H    0.101952
    39  H    0.110602
    40  H    0.107138
    41  H    0.078181
    42  H    0.115901
    43  H    0.125086
    44  H    0.129401
    45  H    0.092977
    46  H    0.111766
    47  H    0.377035
    48  H    0.107095
    49  H    0.099980
    50  H    0.359125
 Sum of Mulliken charges =   0.00000

 Dipole moment (field-independent basis, Debye):
    X=              0.1447    Y=              0.0607    Z=              0.0666  Tot=              0.1705
  Exact polarizability: 194.557   2.894 152.335  -0.009   0.430 147.202
 Approx polarizability: 178.424   3.200 168.201   0.388  -0.210 167.033
   1 Symmetry operations used in ECPInt.
 ECPInt:  NShTT=   14878 NPrTT=   59670 LenC2=   14046 LenP2D=   39242.
 LDataN:  DoStor=T MaxTD1= 6 Len=  172
 Calling FoFJK, ICntrl=    100127 FMM=F ISym2X=0 I1Cent= 0 IOpClX= 0 NMat=1 NMatS=1 NMatT=0.
 Full mass-weighted force constant matrix:
 Low frequencies ---   -5.6161   -3.6843   -0.0010    0.0004    0.0010    3.2216
 Low frequencies ---   41.0741   49.6806   54.3474
 Diagonal vibrational polarizability:

                      1                      2                      3
                      A                      A                      A
 Frequencies --     41.0433                49.6550                54.3368
 Red. masses --      2.8847                 2.7282                 3.3925
 Frc consts  --      0.0029                 0.0040                 0.0059
 IR Inten    --      0.2397                 2.2416                 0.4830

                      4                      5                      6
                      A                      A                      A
 Frequencies --     62.6379                76.7818                78.2861
 Red. masses --      2.4114                 3.4465                 3.9075
 Frc consts  --      0.0056                 0.0120                 0.0141
 IR Inten    --      4.0786                 0.9932                 0.2305

                      7                      8                      9
                      A                      A                      A
 Frequencies --     80.4316                96.2752               113.2019
 Red. masses --      3.0771                 1.8560                 4.6715
 Frc consts  --      0.0117                 0.0101                 0.0353
 IR Inten    --      0.4736                 0.2210                 0.0592

                     10                     11                     12
                      A                      A                      A
 Frequencies --    133.2738               142.2620               165.3908
 Red. masses --      1.8419                 3.2183                 2.2928
 Frc consts  --      0.0193                 0.0384                 0.0370
 IR Inten    --      0.3809                 0.0271                 1.0534

                     13                     14                     15
                      A                      A                      A
 Frequencies --    201.6482               212.6594               235.1588
 Red. masses --      2.4221                 1.9898                 1.1719
 Frc consts  --      0.0580                 0.0530                 0.0382
 IR Inten    --      1.6204                 7.5179                 0.1755

                     16                     17                     18
                      A                      A                      A
 Frequencies --    238.0048               252.9540               255.2794
 Red. masses --      1.2855                 2.7912                 3.1168
 Frc consts  --      0.0429                 0.1052                 0.1197
 IR Inten    --      0.1713                 1.4181                11.3946

                     19                     20                     21
                      A                      A                      A
 Frequencies --    278.7137               295.0232               301.0034
 Red. masses --      2.2201                 2.7433                 2.3977
 Frc consts  --      0.1016                 0.1407                 0.1280
 IR Inten    --      2.6879                 0.3911                 3.0836

                     22                     23                     24
                      A                      A                      A
 Frequencies --    315.9070               319.1406               324.0870
 Red. masses --      3.4192                 2.2025                 2.3921
 Frc consts  --      0.2010                 0.1322                 0.1480
 IR Inten    --     14.4407                 3.0655                 9.3399

                     25                     26                     27
                      A                      A                      A
 Frequencies --    333.5226               361.7119               371.6842
 Red. masses --      2.2855                 2.2134                 2.2672
 Frc consts  --      0.1498                 0.1706                 0.1845
 IR Inten    --      1.3932                 0.3584                 1.9495

                     28                     29                     30
                      A                      A                      A
 Frequencies --    374.6933               403.7985               413.4186
 Red. masses --      2.1251                 3.8870                 4.0671
 Frc consts  --      0.1758                 0.3734                 0.4096
 IR Inten    --      2.6037                 0.9824                 1.6769

                     31                     32                     33
                      A                      A                      A
 Frequencies --    426.1247               428.7624               509.7323
 Red. masses --      2.9293                 2.8431                 2.5115
 Frc consts  --      0.3134                 0.3079                 0.3845
 IR Inten    --      4.6739                 0.4869                 0.7360

                     34                     35                     36
                      A                      A                      A
 Frequencies --    514.4532               586.7733               595.7564
 Red. masses --      2.6578                 1.9261                 2.5694
 Frc consts  --      0.4144                 0.3907                 0.5373
 IR Inten    --      4.7826                 1.3131                 8.3625

                     37                     38                     39
                      A                      A                      A
 Frequencies --    624.2979               700.3637               736.0367
 Red. masses --      1.3742                 1.3792                 2.1052
 Frc consts  --      0.3156                 0.3986                 0.6720
 IR Inten    --      2.6058               179.8141                 9.1585

                     40                     41                     42
                      A                      A                      A
 Frequencies --    749.2243               774.4761               778.7103
 Red. masses --      1.7737                 1.3281                 1.3708
 Frc consts  --      0.5866                 0.4693                 0.4898
 IR Inten    --     45.7620                33.0013                17.9208

                     43                     44                     45
                      A                      A                      A
 Frequencies --    801.3544               806.0725               814.2147
 Red. masses --      1.2598                 1.3226                 1.0883
 Frc consts  --      0.4767                 0.5063                 0.4251
 IR Inten    --     25.7404                52.6944               236.7874

                     46                     47                     48
                      A                      A                      A
 Frequencies --    904.3317               917.8173               933.0387
 Red. masses --      1.5706                 1.8707                 1.4488
 Frc consts  --      0.7568                 0.9285                 0.7431
 IR Inten    --      3.4601                 6.3958                 1.4619

                     49                     50                     51
                      A                      A                      A
 Frequencies --    948.2551               956.5604               960.9931
 Red. masses --      1.5938                 1.6932                 1.6950
 Frc consts  --      0.8444                 0.9128                 0.9223
 IR Inten    --     12.3939                15.4036                16.5791

                     52                     53                     54
                      A                      A                      A
 Frequencies --    978.3485              1020.9706              1025.6072
 Red. masses --      1.5656                 1.5686                 1.5701
 Frc consts  --      0.8829                 0.9634                 0.9731
 IR Inten    --      0.5830                 1.7808                 8.2171

                     55                     56                     57
                      A                      A                      A
 Frequencies --   1034.8127              1038.5984              1072.5747
 Red. masses --      1.6302                 1.5561                 1.7437
 Frc consts  --      1.0286                 0.9890                 1.1819
 IR Inten    --     15.2238                 5.8464                 3.1858

                     58                     59                     60
                      A                      A                      A
 Frequencies --   1076.4920              1078.2324              1081.8828
 Red. masses --      1.7099                 2.1769                 2.1112
 Frc consts  --      1.1675                 1.4911                 1.4559
 IR Inten    --      0.4105                 2.7863                 0.4568

                     61                     62                     63
                      A                      A                      A
 Frequencies --   1100.5390              1102.4319              1129.5858
 Red. masses --      2.4273                 2.4788                 3.7323
 Frc consts  --      1.7322                 1.7750                 2.8059
 IR Inten    --      1.7662                 8.0412                18.1636

                     64                     65                     66
                      A                      A                      A
 Frequencies --   1135.8690              1143.0376              1153.6404
 Red. masses --      3.9380                 3.9522                 3.6601
 Frc consts  --      2.9935                 3.0423                 2.8700
 IR Inten    --     24.8150               337.4025                21.5731

                     67                     68                     69
                      A                      A                      A
 Frequencies --   1195.5871              1198.6135              1212.1454
 Red. masses --      1.8204                 2.0579                 1.7106
 Frc consts  --      1.5331                 1.7419                 1.4808
 IR Inten    --     13.5315                25.6634                 7.8391

                     70                     71                     72
                      A                      A                      A
 Frequencies --   1216.2400              1233.2733              1248.6484
 Red. masses --      1.9923                 1.6884                 2.2471
 Frc consts  --      1.7363                 1.5130                 2.0642
 IR Inten    --     13.1856                64.7593                 4.8953

                     73                     74                     75
                      A                      A                      A
 Frequencies --   1273.4964              1280.3786              1303.3255
 Red. masses --      1.2361                 1.1355                 1.4524
 Frc consts  --      1.1812                 1.0968                 1.4536
 IR Inten    --     10.9363                53.4370                22.7758

                     76                     77                     78
                      A                      A                      A
 Frequencies --   1313.0451              1317.1704              1319.4378
 Red. masses --      1.2823                 1.2611                 1.2022
 Frc consts  --      1.3025                 1.2891                 1.2331
 IR Inten    --      1.2386                 0.7193                10.2279

                     79                     80                     81
                      A                      A                      A
 Frequencies --   1347.9093              1353.6928              1386.0523
 Red. masses --      1.3070                 1.3097                 1.2829
 Frc consts  --      1.3991                 1.4140                 1.4522
 IR Inten    --      3.7682                 1.0459                 4.1521

                     82                     83                     84
                      A                      A                      A
 Frequencies --   1393.3897              1395.9192              1396.6518
 Red. masses --      1.2933                 1.4250                 1.3643
 Frc consts  --      1.4794                 1.6360                 1.5679
 IR Inten    --      1.0625                 2.6128                 0.7941

                     85                     86                     87
                      A                      A                      A
 Frequencies --   1404.2585              1406.0769              1421.9844
 Red. masses --      1.4668                 1.4495                 1.2182
 Frc consts  --      1.7042                 1.6884                 1.4512
 IR Inten    --      0.8982                 2.8419                18.2219

                     88                     89                     90
                      A                      A                      A
 Frequencies --   1428.9930              1431.1168              1437.2581
 Red. masses --      1.3680                 1.3248                 1.3727
 Frc consts  --      1.6458                 1.5986                 1.6707
 IR Inten    --     14.3737                33.0584                10.2602

                     91                     92                     93
                      A                      A                      A
 Frequencies --   1440.6784              1440.8359              1443.2190
 Red. masses --      1.3437                 1.3474                 1.2651
 Frc consts  --      1.6432                 1.6481                 1.5526
 IR Inten    --     48.1056                 3.0208                14.9712

                     94                     95                     96
                      A                      A                      A
 Frequencies --   1450.0510              1482.9269              1484.0167
 Red. masses --      1.2360                 1.0752                 1.0829
 Frc consts  --      1.5312                 1.3931                 1.4051
 IR Inten    --     15.5910                15.0581                 7.2842

                     97                     98                     99
                      A                      A                      A
 Frequencies --   1484.8412              1485.6281              1492.2163
 Red. masses --      1.0818                 1.0709                 1.0648
 Frc consts  --      1.4052                 1.3926                 1.3970
 IR Inten    --     21.2372                 0.9041                11.7817

                    100                    101                    102
                      A                      A                      A
 Frequencies --   1494.3614              1495.7720              1498.4218
 Red. masses --      1.0592                 1.0755                 1.0552
 Frc consts  --      1.3936                 1.4177                 1.3959
 IR Inten    --     10.9024                 2.0863                 5.4775

                    103                    104                    105
                      A                      A                      A
 Frequencies --   1499.4091              1501.9621              1505.1169
 Red. masses --      1.0501                 1.0753                 1.0488
 Frc consts  --      1.3909                 1.4292                 1.3999
 IR Inten    --      1.5645                 1.4367                 8.3403

                    106                    107                    108
                      A                      A                      A
 Frequencies --   1507.7121              1509.8330              1512.8934
 Red. masses --      1.0708                 1.0655                 1.0568
 Frc consts  --      1.4341                 1.4311                 1.4251
 IR Inten    --      7.5175                 4.6966                70.4453

                    109                    110                    111
                      A                      A                      A
 Frequencies --   1518.2329              1520.6062              1546.3846
 Red. masses --      1.0863                 1.0702                 1.1217
 Frc consts  --      1.4753                 1.4579                 1.5804
 IR Inten    --      1.7263                 5.7551                15.1377

                    112                    113                    114
                      A                      A                      A
 Frequencies --   1557.9573              2996.8919              3003.7248
 Red. masses --      1.1403                 1.0703                 1.0710
 Frc consts  --      1.6307                 5.6637                 5.6932
 IR Inten    --    351.4209                79.0104                57.1748

                    115                    116                    117
                      A                      A                      A
 Frequencies --   3027.1646              3027.5528              3030.6580
 Red. masses --      1.0614                 1.0621                 1.0613
 Frc consts  --      5.7308                 5.7359                 5.7431
 IR Inten    --     52.9942                 4.2734                47.3854

                    118                    119                    120
                      A                      A                      A
 Frequencies --   3032.1254              3038.3216              3038.9156
 Red. masses --      1.0549                 1.0459                 1.0412
 Frc consts  --      5.7141                 5.6889                 5.6652
 IR Inten    --     38.6634                50.1662                28.9217

                    121                    122                    123
                      A                      A                      A
 Frequencies --   3040.0605              3040.5077              3060.4407
 Red. masses --      1.0391                 1.0396                 1.0751
 Frc consts  --      5.6580                 5.6625                 5.9331
 IR Inten    --     14.9858                20.9475                21.9948

                    124                    125                    126
                      A                      A                      A
 Frequencies --   3066.7530              3075.2675              3076.2118
 Red. masses --      1.0756                 1.1029                 1.1030
 Frc consts  --      5.9603                 6.1455                 6.1498
 IR Inten    --     17.5361                13.6271                15.3477

                    127                    128                    129
                      A                      A                      A
 Frequencies --   3092.2320              3092.4989              3105.4687
 Red. masses --      1.1080                 1.1073                 1.0983
 Frc consts  --      6.2422                 6.2393                 6.2404
 IR Inten    --      4.5990                72.1134                35.9632

                    130                    131                    132
                      A                      A                      A
 Frequencies --   3114.0788              3123.3125              3126.5948
 Red. masses --      1.0978                 1.1038                 1.1037
 Frc consts  --      6.2722                 6.3442                 6.3571
 IR Inten    --     33.8224                12.7429                15.6303

                    133                    134                    135
                      A                      A                      A
 Frequencies --   3128.7709              3129.9936              3134.0613
 Red. masses --      1.1038                 1.1041                 1.1033
 Frc consts  --      6.3663                 6.3732                 6.3848
 IR Inten    --     29.1835                27.4760                15.7323

                    136                    137                    138
                      A                      A                      A
 Frequencies --   3135.4374              3136.0435              3137.2232
 Red. masses --      1.1036                 1.1044                 1.1041
 Frc consts  --      6.3925                 6.3993                 6.4023
 IR Inten    --     17.3301                25.9907                27.5688

                    139                    140                    141
                      A                      A                      A
 Frequencies --   3166.5185              3182.4649              3416.0043
 Red. masses --      1.0902                 1.0889                 1.0705
 Frc consts  --      6.4407                 6.4980                 7.3601
 IR Inten    --     11.6711                16.0799                96.9165

                    142                    143                    144
                      A                      A                      A
 Frequencies --   3469.3170              3513.2670              3527.2360
 Red. masses --      1.0697                 1.0657                 1.0647
 Frc consts  --      7.5855                 7.7499                 7.8046
 IR Inten    --   1108.0292               512.9221                41.8666

 Optimization completed.
    -- Stationary point found.
 Normal termination of Gaussian 16 at Mon Feb  6 12:15:38 2023.
