 Gaussian 16, Revision B.01,
 Gaussian 16:  ES64L-G16RevB.01 20-Dec-2017

 --------------------------------------------------------------
 #T wB97XD//def2svpp Volume=tight Geom=AllCheckpoint Guess=Read
 --------------------------------------------------------------
 Structure from the checkpoint file:  "monomer.chk"
 -------
 Monomer
 -------
 Charge =  0 Multiplicity = 1

                         Standard orientation:
 ---------------------------------------------------------------------
 Center     Atomic      Atomic             Coordinates (Angstroms)
 Number     Number       Type             X           Y           Z
 ---------------------------------------------------------------------
      1          6           0       -1.710988   -0.781303   -0.002289
      2          6           0       -0.444141    0.008417   -0.331989
      3          6           0       -0.543861    1.464009    0.122531
      4          6           0        0.787915   -0.677840    0.267030
      5          8           0        1.997488   -0.025310   -0.027052
      6          1           0       -1.880600   -0.812870    1.089831
      7          1           0       -1.647913   -1.822884   -0.364526
      8          1           0       -2.599083   -0.316995   -0.464507
      9          1           0       -0.316116   -0.000435   -1.434194
     10          1           0        0.389276    2.008137   -0.096095
     11          1           0       -0.716147    1.518948    1.213445
     12          1           0       -1.379074    1.983371   -0.379097
     13          1           0        0.814966   -1.738816   -0.061783
     14          1           0        0.708013   -0.682932    1.368359
     15          1           0        2.113221   -0.012734   -0.986714
 ---------------------------------------------------------------------

 SCF Done:  E(RwB97XD) =  -233.400533384     A.U. after    1 cycles

 The electronic state is 1-A.
 Alpha  occ. eigenvalues --  -19.24627 -10.33199 -10.29810 -10.28521 -10.27732
 Alpha  occ. eigenvalues --   -1.11010  -0.89307  -0.77281  -0.76053  -0.66446
 Alpha  occ. eigenvalues --   -0.58538  -0.56123  -0.53299  -0.49945  -0.48314
 Alpha  occ. eigenvalues --   -0.46703  -0.44681  -0.42531  -0.41386  -0.39514
 Alpha  occ. eigenvalues --   -0.34935
 Alpha virt. eigenvalues --    0.12879   0.14799   0.17513   0.18545   0.20736
 Alpha virt. eigenvalues --    0.21052   0.22212   0.23507   0.24420   0.26146
 Alpha virt. eigenvalues --    0.29984   0.31274   0.31527   0.33465   0.48761

 Mulliken charges:
               1
     1  C   -0.309243
     2  C   -0.249800
     3  C   -0.290702
     4  C    0.044919
     5  O   -0.482554
     6  H    0.114357
     7  H    0.117857
     8  H    0.122523
     9  H    0.082005
    10  H    0.124989
    11  H    0.108546
    12  H    0.116503
    13  H    0.090738
    14  H    0.097418
    15  H    0.312444
 Sum of Mulliken charges =   0.00000

 Dipole moment (field-independent basis, Debye):
    X=             -0.9742    Y=             -0.5297    Z=             -1.2835  Tot=              1.6962
 Evaluate density.
 Using the total density.
 Monte-Carlo method of calculating molar volume:
 based on  0.001 e/bohr**3 density envelope.
 Number of points per bohr**3 =  100 CutOff= 1.00D-04
 Using the SCF density.
 There are      1653 points.  Will hold      1653 in memory.
 LenV=  1048403698 MDV=  1048576000.
 Box volume = 4520.781 fraction occupied=0.164
 Integrated density= 2.9777837602778103D+01 error=-1.2222162397221897D+01

 Normal termination of Gaussian 16 at Tue Apr  2 13:45:38 2024.
