 Gaussian 16, Revision B.01,
 Gaussian 16:  ES64L-G16RevB.01 20-Dec-2017

 ----------------------------------------------------------------------
 #T wB97XD/def2svpp opt=(tight,calcall) freq int(grid=ultrafine) scf=(v
 erytight,qc)
 ----------------------------------------------------------------------
 -----
 dimer
 -----
 Symbolic Z-matrix:
 Charge =  0 Multiplicity = 1

 SCF Done:  E(RwB97XD) =  -3756.48614745     a.u. after    8 cycles
 SCF Done:  E(RwB97XD) =  -3756.48731623     a.u. after    4 cycles
 SCF Done:  E(RwB97XD) =  -3756.48762696     a.u. after    4 cycles
 SCF Done:  E(RwB97XD) =  -3756.48813664     a.u. after    5 cycles
 SCF Done:  E(RwB97XD) =  -3756.48823632     a.u. after    5 cycles
 SCF Done:  E(RwB97XD) =  -3756.48824946     a.u. after    3 cycles
 SCF Done:  E(RwB97XD) =  -3756.48824732     a.u. after    3 cycles
 SCF Done:  E(RwB97XD) =  -3756.48824481     a.u. after    4 cycles
 SCF Done:  E(RwB97XD) =  -3756.48824992     a.u. after    4 cycles
 SCF Done:  E(RwB97XD) =  -3756.48824098     a.u. after    3 cycles
 SCF Done:  E(RwB97XD) =  -3756.48824247     a.u. after    3 cycles
 SCF Done:  E(RwB97XD) =  -3756.48824251     a.u. after    2 cycles
 SCF Done:  E(RwB97XD) =  -3756.48824256     a.u. after    2 cycles
 SCF Done:  E(RwB97XD) =  -3756.48824245     a.u. after    2 cycles
 SCF Done:  E(RwB97XD) =  -3756.48824244     a.u. after    2 cycles
 SCF Done:  E(RwB97XD) =  -3756.48824244     a.u. after    2 cycles
 Optimization completed.
    -- Stationary point found.
 Normal termination of Gaussian 16 at Tue Sep 13 10:47:40 2022.

 ---------------------------------------------------------------------
 #T Geom=AllCheck Guess=TCheck SCRF=Check GenChk RwB97XD/def2SVPP Freq
 ---------------------------------------------------------------------
 Structure from the checkpoint file:  "/scratch/user/peterchao1/peterchao1/6269708_1663082857000000543186962/Gau-246788.chk"
 -----
 dimer
 -----
 Charge =  0 Multiplicity = 1

                         Standard orientation:
 ---------------------------------------------------------------------
 Center     Atomic      Atomic             Coordinates (Angstroms)
 Number     Number       Type             X           Y           Z
 ---------------------------------------------------------------------
      1         17           0       -2.323579   -1.293914   -1.217272
      2          6           0       -2.340684    0.000820    0.000703
      3         17           0       -1.772415   -0.641440    1.555606
      4         17           0       -1.277245    1.322584   -0.522934
      5         17           0       -3.998990    0.613524    0.184347
      6         17           0        3.999216   -0.612788    0.184709
      7          6           0        2.340679   -0.000821    0.000704
      8         17           0        1.772411    0.642741    1.555078
      9         17           0        2.322985    1.292743   -1.218513
     10         17           0        1.277619   -1.323450   -0.521518
 ---------------------------------------------------------------------

 SCF Done:  E(RwB97XD) =  -3756.48824244     a.u. after    1 cycles

 The electronic state is 1-A.
 Alpha  occ. eigenvalues -- -101.71013-101.71013-101.70973-101.70972-101.70965
 Alpha  occ. eigenvalues -- -101.70965-101.70953-101.70949 -10.52910 -10.52909
 Alpha  occ. eigenvalues --   -9.61882  -9.61881  -9.61840  -9.61840  -9.61838
 Alpha  occ. eigenvalues --   -9.61836  -9.61824  -9.61820  -7.37347  -7.37347
 Alpha  occ. eigenvalues --   -7.37307  -7.37306  -7.37305  -7.37305  -7.37290
 Alpha  occ. eigenvalues --   -7.37290  -7.36220  -7.36220  -7.36217  -7.36216
 Alpha  occ. eigenvalues --   -7.36177  -7.36175  -7.36174  -7.36174  -7.36174
 Alpha  occ. eigenvalues --   -7.36173  -7.36172  -7.36171  -7.36159  -7.36158
 Alpha  occ. eigenvalues --   -7.36158  -7.36156  -1.08413  -1.08253  -0.95393
 Alpha  occ. eigenvalues --   -0.95388  -0.95353  -0.95223  -0.95213  -0.95159
 Alpha  occ. eigenvalues --   -0.72001  -0.71693  -0.59325  -0.59260  -0.59054
 Alpha  occ. eigenvalues --   -0.59029  -0.58842  -0.58774  -0.46649  -0.46210
 Alpha  occ. eigenvalues --   -0.46113  -0.45482  -0.44481  -0.43145  -0.43119
 Alpha  occ. eigenvalues --   -0.43106  -0.43106  -0.41498  -0.40014  -0.39963
 Alpha  occ. eigenvalues --   -0.39773  -0.39717  -0.39642  -0.39584
 Alpha virt. eigenvalues --    0.03388   0.03449   0.07608   0.07615   0.07680
 Alpha virt. eigenvalues --    0.07707   0.07817   0.07946   0.38238   0.45353
 Alpha virt. eigenvalues --    0.46111   0.46871   0.47757   0.47784   0.48381

 Mulliken charges:
               1
     1  Cl  -0.009195
     2  C    0.026751
     3  Cl  -0.005077
     4  Cl  -0.004536
     5  Cl  -0.007947
     6  Cl  -0.007943
     7  C    0.026750
     8  Cl  -0.005074
     9  Cl  -0.009196
    10  Cl  -0.004533
 Sum of Mulliken charges =   0.00000

 Dipole moment (field-independent basis, Debye):
    X=              0.0001    Y=             -0.0000    Z=              0.0265  Tot=              0.0265
  Exact polarizability: 102.108  -0.987  86.524   0.000   0.001  86.855
 Approx polarizability: 115.089  -0.168 112.678  -0.000   0.000 112.645
   1 Symmetry operations used in ECPInt.
 ECPInt:  NShTT=    2926 NPrTT=   14406 LenC2=    2549 LenP2D=    7842.
 LDataN:  DoStor=T MaxTD1= 6 Len=  172
 Calling FoFJK, ICntrl=    100127 FMM=F ISym2X=0 I1Cent= 0 IOpClX= 0 NMat=1 NMatS=1 NMatT=0.
 Full mass-weighted force constant matrix:
 Low frequencies ---   -5.9304   -5.4167   -0.0051   -0.0042   -0.0035    4.8717
 Low frequencies ---   23.5917   25.6982   27.5891
 Diagonal vibrational polarizability:

                      1                      2                      3
                      A                      A                      A
 Frequencies --     23.5494                24.9825                27.5641
 Red. masses --     34.5556                34.6590                34.5751
 Frc consts  --      0.0113                 0.0127                 0.0155
 IR Inten    --      0.0003                 0.0177                 0.0002

                      4                      5                      6
                      A                      A                      A
 Frequencies --     49.3555                59.2363                61.8966
 Red. masses --     33.6660                30.8500                33.8942
 Frc consts  --      0.0483                 0.0638                 0.0765
 IR Inten    --      0.0001                 0.0005                 0.0014

                      7                      8                      9
                      A                      A                      A
 Frequencies --    220.3573               221.8591               223.1972
 Red. masses --     34.9684                34.9685                34.9649
 Frc consts  --      1.0004                 1.0141                 1.0263
 IR Inten    --      0.0064                 0.0002                 0.0274

                     10                     11                     12
                      A                      A                      A
 Frequencies --    226.9093               321.2593               321.5408
 Red. masses --     34.9404                32.1028                32.0365
 Frc consts  --      1.0599                 1.9521                 1.9515
 IR Inten    --      0.0000                 0.0050                 0.0087

                     13                     14                     15
                      A                      A                      A
 Frequencies --    321.9740               322.3196               322.3405
 Red. masses --     32.0454                31.9838                31.9896
 Frc consts  --      1.9573                 1.9577                 1.9583
 IR Inten    --      0.0273                 0.0426                 0.0010

                     16                     17                     18
                      A                      A                      A
 Frequencies --    322.8911               471.8070               471.8418
 Red. masses --     32.1734                34.9675                34.9684
 Frc consts  --      1.9763                 4.5861                 4.5869
 IR Inten    --      0.0000                 0.0040                 0.0020

                     19                     20                     21
                      A                      A                      A
 Frequencies --    793.9034               795.3686               797.5804
 Red. masses --     13.0979                13.0942                13.0956
 Frc consts  --      4.8639                 4.8805                 4.9082
 IR Inten    --     11.5242                19.3656               394.2230

                     22                     23                     24
                      A                      A                      A
 Frequencies --    806.6493               807.4138               809.9909
 Red. masses --     13.0924                13.0941                13.0832
 Frc consts  --      5.0192                 5.0294                 5.0574
 IR Inten    --     24.8477               272.1793               302.2715

                           ! Non-Optimized Parameters !
 Normal termination of Gaussian 16 at Tue Sep 13 10:48:43 2022.
