 Gaussian 16, Revision B.01,
 Gaussian 16:  ES64L-G16RevB.01 20-Dec-2017

 --------------------------------------------------------------
 #T wB97XD//def2svpp Volume=tight Geom=AllCheckpoint Guess=Read
 --------------------------------------------------------------
 Structure from the checkpoint file:  "31.chk"
 -------
 Monomer
 -------
 Charge =  0 Multiplicity = 1

                         Standard orientation:
 ---------------------------------------------------------------------
 Center     Atomic      Atomic             Coordinates (Angstroms)
 Number     Number       Type             X           Y           Z
 ---------------------------------------------------------------------
      1          6           0        0.810481    0.038510    1.455764
      2          6           0        0.357212   -0.000007   -0.000009
      3          6           0        0.810601    1.241458   -0.761229
      4          6           0        0.810467   -1.280041   -0.694491
      5         17           0       -1.477699    0.000043   -0.000022
      6          1           0        1.914797    0.039458    1.500288
      7          1           0        0.440384   -0.841258    2.007460
      8          1           0        0.440766    0.946467    1.959997
      9          1           0        1.914924    1.279494   -0.784165
     10          1           0        0.440476    2.159173   -0.275261
     11          1           0        0.441054    1.224179   -1.799721
     12          1           0        1.914785   -1.319166   -0.715771
     13          1           0        0.440525   -1.317917   -1.732300
     14          1           0        0.440611   -2.170688   -0.160361
 ---------------------------------------------------------------------

 SCF Done:  E(RwB97XD) =  -617.735122385     A.U. after    1 cycles

 The electronic state is 1-A.
 Alpha  occ. eigenvalues -- -101.64569 -10.36637 -10.29414 -10.29414 -10.29411
 Alpha  occ. eigenvalues --   -9.55359  -7.30711  -7.29779  -7.29779  -0.96134
 Alpha  occ. eigenvalues --   -0.85241  -0.78976  -0.78975  -0.63753  -0.55683
 Alpha  occ. eigenvalues --   -0.54202  -0.54202  -0.48848  -0.48848  -0.45846
 Alpha  occ. eigenvalues --   -0.43631  -0.43631  -0.42693  -0.36443  -0.36443
 Alpha virt. eigenvalues --    0.10869   0.12900   0.19124   0.19124   0.19853
 Alpha virt. eigenvalues --    0.19853   0.20134   0.23841   0.23842   0.26620
 Alpha virt. eigenvalues --    0.26763   0.29526   0.29526   0.46434   0.46971

 Mulliken charges:
               1
     1  C   -0.240220
     2  C   -0.265103
     3  C   -0.240224
     4  C   -0.240219
     5  Cl  -0.158065
     6  H    0.118611
     7  H    0.131335
     8  H    0.131328
     9  H    0.118613
    10  H    0.131340
    11  H    0.131326
    12  H    0.118612
    13  H    0.131336
    14  H    0.131331
 Sum of Mulliken charges =  -0.00000

 Dipole moment (field-independent basis, Debye):
    X=              2.1151    Y=             -0.0001    Z=             -0.0000  Tot=              2.1151
 Evaluate density.
 Using the total density.
 Monte-Carlo method of calculating molar volume:
 based on  0.001 e/bohr**3 density envelope.
 Number of points per bohr**3 =  100 CutOff= 1.00D-04
 Using the SCF density.
 There are      1804 points.  Will hold      1804 in memory.
 LenV=  1048384765 MDV=  1048576000.
 Box volume = 5876.294 fraction occupied=0.149
 Integrated density= 3.5350984042634238D+01 error=-1.4649015957365762D+01

 Normal termination of Gaussian 16 at Fri Sep 23 14:18:43 2022.
