 Gaussian 16, Revision B.01,
 Gaussian 16:  ES64L-G16RevB.01 20-Dec-2017

 --------------------------------------------------------------
 #T wB97XD//def2svpp Volume=tight Geom=AllCheckpoint Guess=Read
 --------------------------------------------------------------
 Structure from the checkpoint file:  "14.chk"
 -----
 Dimer
 -----
 Charge =  0 Multiplicity = 1

                         Standard orientation:
 ---------------------------------------------------------------------
 Center     Atomic      Atomic             Coordinates (Angstroms)
 Number     Number       Type             X           Y           Z
 ---------------------------------------------------------------------
      1          6           0        1.869996   -1.365125    0.123864
      2          6           0        1.343259   -0.182141   -0.684695
      3          6           0        0.158328    0.584679   -0.050078
      4          6           0        0.546739    1.213985    1.290677
      5          6           0       -0.307755    1.681874   -1.025198
      6          6           0       -1.000924   -0.379534    0.177081
      7          8           0       -1.382478   -1.000546   -0.954022
      8          8           0       -1.547529   -0.592869    1.226913
      9          1           0        1.081284   -2.117403    0.303052
     10          1           0        2.267724   -1.053682    1.104138
     11          1           0        2.686926   -1.867784   -0.420933
     12          1           0        1.034826   -0.534789   -1.683738
     13          1           0        2.158108    0.547406   -0.847206
     14          1           0       -0.285597    1.809247    1.700493
     15          1           0        1.416986    1.879522    1.153286
     16          1           0        0.801202    0.452396    2.044225
     17          1           0        0.508947    2.407552   -1.184380
     18          1           0       -1.175467    2.231686   -0.620650
     19          1           0       -0.590315    1.257845   -2.002462
     20          1           0       -2.122432   -1.587108   -0.718854
 ---------------------------------------------------------------------

 SCF Done:  E(RwB97XD) =  -385.916056423     A.U. after    1 cycles

 The electronic state is 1-A.
 Alpha  occ. eigenvalues --  -19.30262 -19.24473 -10.42636 -10.32200 -10.29695
 Alpha  occ. eigenvalues --  -10.29070 -10.28516 -10.28186  -1.20418  -1.10584
 Alpha  occ. eigenvalues --   -0.92701  -0.83409  -0.77966  -0.75381  -0.71283
 Alpha  occ. eigenvalues --   -0.64984  -0.58053  -0.56863  -0.56204  -0.53324
 Alpha  occ. eigenvalues --   -0.51980  -0.50822  -0.49238  -0.47423  -0.46793
 Alpha  occ. eigenvalues --   -0.44951  -0.44384  -0.43222  -0.41082  -0.40892
 Alpha  occ. eigenvalues --   -0.40444  -0.35602
 Alpha virt. eigenvalues --    0.08783   0.12686   0.14619   0.16842   0.18091
 Alpha virt. eigenvalues --    0.18666   0.20453   0.21330   0.21914   0.23080
 Alpha virt. eigenvalues --    0.24518   0.25787   0.26370   0.28076   0.29841

 Mulliken charges:
               1
     1  C   -0.324355
     2  C   -0.184171
     3  C   -0.308079
     4  C   -0.256080
     5  C   -0.265382
     6  C    0.241090
     7  O   -0.376568
     8  O   -0.224616
     9  H    0.129362
    10  H    0.124655
    11  H    0.124702
    12  H    0.121122
    13  H    0.106334
    14  H    0.125931
    15  H    0.112828
    16  H    0.134596
    17  H    0.122837
    18  H    0.124783
    19  H    0.134812
    20  H    0.336200
 Sum of Mulliken charges =   0.00000

 Dipole moment (field-independent basis, Debye):
    X=              0.6002    Y=              0.0290    Z=             -1.4799  Tot=              1.5972
 Evaluate density.
 Using the total density.
 Monte-Carlo method of calculating molar volume:
 based on  0.001 e/bohr**3 density envelope.
 Number of points per bohr**3 =  100 CutOff= 1.00D-04
 Using the SCF density.
 There are      1820 points.  Will hold      1820 in memory.
 LenV=  1048286884 MDV=  1048576000.
 Box volume = 6030.963 fraction occupied=0.178
 Integrated density= 4.7830698632659768D+01 error=-1.6169301367340232D+01

 Normal termination of Gaussian 16 at Fri Feb  3 13:04:09 2023.
