 Gaussian 16, Revision B.01,
 Gaussian 16:  ES64L-G16RevB.01 20-Dec-2017

 ----------------------------------------------------------------------
 #T wB97XD/def2svpp opt=tight freq int(grid=ultrafine) scf=(verytight,q
 c) Volume=tight
 ----------------------------------------------------------------------
 -----
 Dimer
 -----
 Symbolic Z-matrix:
 Charge =  0 Multiplicity = 1

 SCF Done:  E(RwB97XD) =  -552.175542251     a.u. after    6 cycles
 SCF Done:  E(RwB97XD) =  -552.181641884     a.u. after    7 cycles
 SCF Done:  E(RwB97XD) =  -552.181921811     a.u. after    7 cycles
 SCF Done:  E(RwB97XD) =  -552.181815771     a.u. after    8 cycles
 SCF Done:  E(RwB97XD) =  -552.182177363     a.u. after    7 cycles
 SCF Done:  E(RwB97XD) =  -552.182283304     a.u. after    7 cycles
 SCF Done:  E(RwB97XD) =  -552.182389728     a.u. after    7 cycles
 SCF Done:  E(RwB97XD) =  -552.182434992     a.u. after    7 cycles
 SCF Done:  E(RwB97XD) =  -552.182455308     a.u. after    5 cycles
 SCF Done:  E(RwB97XD) =  -552.182468653     a.u. after    3 cycles
 SCF Done:  E(RwB97XD) =  -552.182483673     a.u. after    2 cycles
 SCF Done:  E(RwB97XD) =  -552.182483680     a.u. after    2 cycles
 SCF Done:  E(RwB97XD) =  -552.182483688     a.u. after    2 cycles
 SCF Done:  E(RwB97XD) =  -552.182483693     a.u. after    2 cycles
 SCF Done:  E(RwB97XD) =  -552.182483696     a.u. after    2 cycles
 SCF Done:  E(RwB97XD) =  -552.182483696     a.u. after    2 cycles
 SCF Done:  E(RwB97XD) =  -552.182483696     a.u. after    2 cycles
 SCF Done:  E(RwB97XD) =  -552.182483697     a.u. after    2 cycles
 SCF Done:  E(RwB97XD) =  -552.182483697     a.u. after    2 cycles
 Optimization completed.
    -- Stationary point found.
 Normal termination of Gaussian 16 at Mon Apr  1 16:51:31 2024.

 ---------------------------------------------------------------------
 #T Geom=AllCheck Guess=TCheck SCRF=Check GenChk RwB97XD/def2SVPP Freq
 ---------------------------------------------------------------------
 Structure from the checkpoint file:  "dimer.chk"
 -----
 Dimer
 -----
 Charge =  0 Multiplicity = 1

                         Standard orientation:
 ---------------------------------------------------------------------
 Center     Atomic      Atomic             Coordinates (Angstroms)
 Number     Number       Type             X           Y           Z
 ---------------------------------------------------------------------
      1          6           0        2.639627   -1.344147   -1.706390
      2          6           0        1.959896   -0.138921   -1.060444
      3          6           0        2.670375    0.494819    0.157335
      4          6           0        4.014791    1.103650   -0.270521
      5          6           0        1.779328    1.625411    0.695684
      6          6           0        2.945316   -0.544452    1.268493
      7          6           0        1.737416   -1.313868    1.800073
      8          1           0        2.058499   -1.686992   -2.579767
      9          1           0        2.715993   -2.196394   -1.009129
     10          1           0        3.657749   -1.107512   -2.060338
     11          1           0        0.940069   -0.433719   -0.759700
     12          1           0        1.826434    0.651077   -1.823584
     13          1           0        3.875668    1.843684   -1.079351
     14          1           0        4.718603    0.333850   -0.632082
     15          1           0        4.498407    1.619527    0.578468
     16          1           0        0.780698    1.259605    0.991234
     17          1           0        1.626424    2.403484   -0.073670
     18          1           0        2.238943    2.107272    1.577658
     19          1           0        3.433173   -0.018542    2.110968
     20          1           0        3.694922   -1.268502    0.899325
     21          1           0        0.976940   -0.642967    2.234447
     22          1           0        2.048201   -2.014984    2.593684
     23          1           0        1.244789   -1.907896    1.010788
     24          6           0       -1.473025   -1.809980   -0.881488
     25          6           0       -1.733928   -0.917567    0.329428
     26          6           0       -2.937155    0.047737    0.239679
     27          6           0       -4.252257   -0.744557    0.177871
     28          6           0       -2.948531    0.905803    1.514593
     29          6           0       -2.860737    0.950782   -1.013001
     30          6           0       -1.590487    1.782373   -1.180993
     31          1           0       -2.338324   -2.453223   -1.117384
     32          1           0       -0.612495   -2.474260   -0.689390
     33          1           0       -1.235191   -1.220911   -1.783994
     34          1           0       -0.824461   -0.324842    0.533018
     35          1           0       -1.872725   -1.555004    1.223053
     36          1           0       -4.348733   -1.422492    1.045220
     37          1           0       -4.321756   -1.354982   -0.739363
     38          1           0       -5.120995   -0.061845    0.185665
     39          1           0       -2.004977    1.464916    1.642257
     40          1           0       -3.078894    0.272023    2.410233
     41          1           0       -3.776966    1.636978    1.495609
     42          1           0       -3.734310    1.629656   -0.993628
     43          1           0       -2.995861    0.322039   -1.912498
     44          1           0       -1.660834    2.410903   -2.085464
     45          1           0       -0.693071    1.150277   -1.289316
     46          1           0       -1.419696    2.457281   -0.324893
 ---------------------------------------------------------------------

 SCF Done:  E(RwB97XD) =  -552.182483697     a.u. after    1 cycles

 The electronic state is 1-A.
 Alpha  occ. eigenvalues --  -10.30184 -10.30149 -10.28374 -10.28371 -10.28369
 Alpha  occ. eigenvalues --  -10.28311 -10.27959 -10.27890 -10.27862 -10.27707
 Alpha  occ. eigenvalues --  -10.27617 -10.27598 -10.27575 -10.27570  -0.92143
 Alpha  occ. eigenvalues --   -0.91987  -0.83425  -0.83408  -0.81827  -0.81649
 Alpha  occ. eigenvalues --   -0.77022  -0.76867  -0.71254  -0.71196  -0.70528
 Alpha  occ. eigenvalues --   -0.70202  -0.60776  -0.60448  -0.56024  -0.55321
 Alpha  occ. eigenvalues --   -0.55199  -0.54654  -0.52400  -0.51893  -0.51340
 Alpha  occ. eigenvalues --   -0.51256  -0.48726  -0.48464  -0.48233  -0.47988
 Alpha  occ. eigenvalues --   -0.46537  -0.46307  -0.45987  -0.45804  -0.44448
 Alpha  occ. eigenvalues --   -0.44137  -0.43892  -0.43853  -0.42300  -0.42257
 Alpha  occ. eigenvalues --   -0.41729  -0.41586  -0.39278  -0.38942  -0.38856
 Alpha  occ. eigenvalues --   -0.38362  -0.38240  -0.37809
 Alpha virt. eigenvalues --    0.11661   0.13471   0.14003   0.15212   0.16281
 Alpha virt. eigenvalues --    0.16889   0.17551   0.17900   0.18389   0.18611
 Alpha virt. eigenvalues --    0.19142   0.19645   0.19682   0.21072   0.21481

 Mulliken charges:
               1
     1  C   -0.313756
     2  C   -0.237962
     3  C   -0.239563
     4  C   -0.266089
     5  C   -0.295144
     6  C   -0.181011
     7  C   -0.338009
     8  H    0.119622
     9  H    0.118993
    10  H    0.118343
    11  H    0.138545
    12  H    0.107121
    13  H    0.110479
    14  H    0.116643
    15  H    0.110463
    16  H    0.140502
    17  H    0.115363
    18  H    0.110646
    19  H    0.095865
    20  H    0.102312
    21  H    0.123863
    22  H    0.119769
    23  H    0.129684
    24  C   -0.326349
    25  C   -0.230546
    26  C   -0.228753
    27  C   -0.265744
    28  C   -0.278556
    29  C   -0.178652
    30  C   -0.341328
    31  H    0.122814
    32  H    0.128122
    33  H    0.124463
    34  H    0.125770
    35  H    0.097669
    36  H    0.110170
    37  H    0.116416
    38  H    0.110693
    39  H    0.123468
    40  H    0.110732
    41  H    0.111305
    42  H    0.095456
    43  H    0.101727
    44  H    0.118341
    45  H    0.126630
    46  H    0.119475
 Sum of Mulliken charges =   0.00000

 Dipole moment (field-independent basis, Debye):
    X=              0.0464    Y=             -0.1009    Z=             -0.0363  Tot=              0.1168
  Exact polarizability: 166.349   1.598 146.770  -1.803  -0.219 144.273
 Approx polarizability: 159.364   0.089 157.597   0.384  -0.212 157.683
   1 Symmetry operations used in ECPInt.
 ECPInt:  NShTT=   11026 NPrTT=   44234 LenC2=   10659 LenP2D=   30653.
 LDataN:  DoStor=T MaxTD1= 6 Len=  172
 Calling FoFJK, ICntrl=    100127 FMM=F ISym2X=0 I1Cent= 0 IOpClX= 0 NMat=1 NMatS=1 NMatT=0.
 Full mass-weighted force constant matrix:
 Low frequencies ---   -6.3297   -2.7116   -0.0007    0.0005    0.0006    5.2576
 Low frequencies ---   22.2452   31.3929   44.0348
 Diagonal vibrational polarizability:

                      1                      2                      3
                      A                      A                      A
 Frequencies --     21.7277                31.2852                43.9258
 Red. masses --      2.9312                 2.9243                 2.8300
 Frc consts  --      0.0008                 0.0017                 0.0032
 IR Inten    --      0.0073                 0.0087                 0.0076

                      4                      5                      6
                      A                      A                      A
 Frequencies --     53.1325                69.4413                73.9663
 Red. masses --      3.5390                 3.2175                 3.2839
 Frc consts  --      0.0059                 0.0091                 0.0106
 IR Inten    --      0.0091                 0.0315                 0.0116

                      7                      8                      9
                      A                      A                      A
 Frequencies --    109.5768               118.0474               124.6497
 Red. masses --      2.0214                 1.9575                 1.4688
 Frc consts  --      0.0143                 0.0161                 0.0134
 IR Inten    --      0.0082                 0.0009                 0.0100

                     10                     11                     12
                      A                      A                      A
 Frequencies --    129.6478               231.1663               238.1106
 Red. masses --      1.6892                 1.1548                 1.1795
 Frc consts  --      0.0167                 0.0364                 0.0394
 IR Inten    --      0.0402                 0.0664                 0.0182

                     13                     14                     15
                      A                      A                      A
 Frequencies --    241.4294               245.6960               250.3828
 Red. masses --      1.2893                 1.6190                 1.6502
 Frc consts  --      0.0443                 0.0576                 0.0610
 IR Inten    --      0.0272                 0.0269                 0.0697

                     16                     17                     18
                      A                      A                      A
 Frequencies --    255.4571               261.3088               262.0554
 Red. masses --      1.3001                 1.3289                 1.1234
 Frc consts  --      0.0500                 0.0535                 0.0455
 IR Inten    --      0.0113                 0.0336                 0.0301

                     19                     20                     21
                      A                      A                      A
 Frequencies --    291.6977               300.2198               328.9619
 Red. masses --      1.2826                 1.2618                 1.7725
 Frc consts  --      0.0643                 0.0670                 0.1130
 IR Inten    --      0.0103                 0.0135                 0.0535

                     22                     23                     24
                      A                      A                      A
 Frequencies --    333.0275               352.3482               356.1252
 Red. masses --      1.7579                 2.0365                 2.0423
 Frc consts  --      0.1149                 0.1490                 0.1526
 IR Inten    --      0.1904                 0.0409                 0.0265

                     25                     26                     27
                      A                      A                      A
 Frequencies --    381.8167               385.2761               419.0464
 Red. masses --      2.3494                 2.3643                 2.3348
 Frc consts  --      0.2018                 0.2068                 0.2416
 IR Inten    --      0.0062                 0.0199                 0.0153

                     28                     29                     30
                      A                      A                      A
 Frequencies --    419.3675               491.3039               492.9639
 Red. masses --      2.3450                 2.3123                 2.3035
 Frc consts  --      0.2430                 0.3288                 0.3298
 IR Inten    --      0.0793                 0.7394                 0.2765

                     31                     32                     33
                      A                      A                      A
 Frequencies --    504.0086               505.1584               709.9709
 Red. masses --      2.3044                 2.2998                 2.8423
 Frc consts  --      0.3449                 0.3458                 0.8441
 IR Inten    --      0.0533                 0.0713                 0.1852

                     34                     35                     36
                      A                      A                      A
 Frequencies --    710.3095               780.9637               783.0894
 Red. masses --      2.8335                 1.1888                 1.1881
 Frc consts  --      0.8423                 0.4272                 0.4293
 IR Inten    --      0.2655                 2.7921                 3.1646

                     37                     38                     39
                      A                      A                      A
 Frequencies --    807.4301               814.4178               885.8090
 Red. masses --      1.1973                 1.1976                 1.6925
 Frc consts  --      0.4599                 0.4680                 0.7824
 IR Inten    --      3.4911                 4.1579                 0.5958

                     40                     41                     42
                      A                      A                      A
 Frequencies --    886.4962               942.2128               942.9891
 Red. masses --      1.6932                 1.8808                 1.8728
 Frc consts  --      0.7840                 0.9838                 0.9812
 IR Inten    --      1.1099                 0.0117                 0.0160

                     43                     44                     45
                      A                      A                      A
 Frequencies --    960.0936               960.2227              1012.8464
 Red. masses --      1.4458                 1.4471                 1.2746
 Frc consts  --      0.7852                 0.7861                 0.7704
 IR Inten    --      0.8835                 0.7434                 0.5003

                     46                     47                     48
                      A                      A                      A
 Frequencies --   1014.0837              1028.3441              1029.3947
 Red. masses --      1.2712                 1.3570                 1.3499
 Frc consts  --      0.7702                 0.8455                 0.8428
 IR Inten    --      0.2793                14.2247                 5.8480

                     49                     50                     51
                      A                      A                      A
 Frequencies --   1035.2146              1036.8310              1046.1575
 Red. masses --      1.3659                 1.3565                 1.6806
 Frc consts  --      0.8624                 0.8592                 1.0837
 IR Inten    --      2.0293                 3.1857                 1.9637

                     52                     53                     54
                      A                      A                      A
 Frequencies --   1046.6068              1083.3674              1084.6203
 Red. masses --      1.6861                 2.6423                 2.6327
 Frc consts  --      1.0882                 1.8272                 1.8248
 IR Inten    --      1.2083                 0.2046                 0.2303

                     55                     56                     57
                      A                      A                      A
 Frequencies --   1114.9288              1116.7479              1120.8240
 Red. masses --      1.9023                 1.8661                 1.5147
 Frc consts  --      1.3932                 1.3712                 1.1212
 IR Inten    --      1.0702                 0.6598                 0.6306

                     58                     59                     60
                      A                      A                      A
 Frequencies --   1123.2129              1236.4155              1236.7152
 Red. masses --      1.5131                 2.1527                 2.1812
 Frc consts  --      1.1247                 1.9390                 1.9655
 IR Inten    --      0.1307                 1.8535                 3.5779

                     61                     62                     63
                      A                      A                      A
 Frequencies --   1245.4316              1247.0214              1290.0761
 Red. masses --      1.9606                 1.9612                 2.5940
 Frc consts  --      1.7917                 1.7969                 2.5436
 IR Inten    --      2.8331                 1.5806                 0.0405

                     64                     65                     66
                      A                      A                      A
 Frequencies --   1290.6135              1330.4836              1331.5121
 Red. masses --      2.5882                 1.1977                 1.3180
 Frc consts  --      2.5401                 1.2492                 1.3768
 IR Inten    --      0.6817                 1.6680                 1.2981

                     67                     68                     69
                      A                      A                      A
 Frequencies --   1332.4769              1334.6235              1384.7243
 Red. masses --      1.3140                 1.1987                 1.3810
 Frc consts  --      1.3746                 1.2580                 1.5602
 IR Inten    --      2.0354                 1.9893                 0.2268

                     70                     71                     72
                      A                      A                      A
 Frequencies --   1387.2387              1398.6624              1399.0327
 Red. masses --      1.3593                 1.4942                 1.4843
 Frc consts  --      1.5412                 1.7222                 1.7117
 IR Inten    --      0.2692                 2.1961                 2.9390

                     73                     74                     75
                      A                      A                      A
 Frequencies --   1411.8495              1412.4361              1424.0835
 Red. masses --      1.3439                 1.3443                 1.3021
 Frc consts  --      1.5784                 1.5801                 1.5558
 IR Inten    --      8.4976                 7.6003                 0.0290

                     76                     77                     78
                      A                      A                      A
 Frequencies --   1426.9018              1428.7784              1429.9744
 Red. masses --      1.2718                 1.3365                 1.3130
 Frc consts  --      1.5257                 1.6075                 1.5818
 IR Inten    --      0.3880                 4.5588                14.2482

                     79                     80                     81
                      A                      A                      A
 Frequencies --   1430.6022              1430.6867              1473.3526
 Red. masses --      1.3472                 1.3097                 1.0686
 Frc consts  --      1.6245                 1.5795                 1.3668
 IR Inten    --      0.4123                 7.9330                 0.4670

                     82                     83                     84
                      A                      A                      A
 Frequencies --   1474.0276              1476.2194              1476.5750
 Red. masses --      1.0667                 1.0569                 1.0571
 Frc consts  --      1.3655                 1.3570                 1.3579
 IR Inten    --      0.2800                 0.3754                 1.2848

                     85                     86                     87
                      A                      A                      A
 Frequencies --   1486.1289              1486.5632              1491.7154
 Red. masses --      1.0617                 1.0529                 1.0660
 Frc consts  --      1.3816                 1.3709                 1.3976
 IR Inten    --      1.2797                 3.0878                24.7693

                     88                     89                     90
                      A                      A                      A
 Frequencies --   1492.9756              1493.7936              1495.4330
 Red. masses --      1.0460                 1.0640                 1.0487
 Frc consts  --      1.3736                 1.3989                 1.3818
 IR Inten    --     13.3814                11.9114                15.4260

                     91                     92                     93
                      A                      A                      A
 Frequencies --   1497.0472              1498.5004              1500.9245
 Red. masses --      1.0625                 1.0647                 1.0504
 Frc consts  --      1.4030                 1.4087                 1.3942
 IR Inten    --     11.7189                13.6328                 0.5704

                     94                     95                     96
                      A                      A                      A
 Frequencies --   1502.2480              1504.8888              1507.5016
 Red. masses --      1.0513                 1.0521                 1.0584
 Frc consts  --      1.3978                 1.4039                 1.4172
 IR Inten    --      3.3772                 0.6558                 5.3330

                     97                     98                     99
                      A                      A                      A
 Frequencies --   1508.4898              1511.0788              1512.3732
 Red. masses --      1.0669                 1.0701                 1.0716
 Frc consts  --      1.4304                 1.4396                 1.4442
 IR Inten    --      1.1417                 5.1741                 1.2483

                    100                    101                    102
                      A                      A                      A
 Frequencies --   1515.3314              3021.1685              3022.0355
 Red. masses --      1.0671                 1.0374                 1.0378
 Frc consts  --      1.4437                 5.5787                 5.5841
 IR Inten    --     19.1744                21.1041                25.1667

                    103                    104                    105
                      A                      A                      A
 Frequencies --   3023.4385              3024.6746              3029.1463
 Red. masses --      1.0412                 1.0412                 1.0594
 Frc consts  --      5.6079                 5.6125                 5.7274
 IR Inten    --     15.8182                16.6740                56.5278

                    106                    107                    108
                      A                      A                      A
 Frequencies --   3030.4799              3034.3388              3036.5980
 Red. masses --      1.0600                 1.0439                 1.0478
 Frc consts  --      5.7355                 5.6627                 5.6922
 IR Inten    --     39.4195                24.5872                36.6359

                    109                    110                    111
                      A                      A                      A
 Frequencies --   3037.6117              3038.5424              3041.3110
 Red. masses --      1.0526                 1.0494                 1.0517
 Frc consts  --      5.7222                 5.7084                 5.7315
 IR Inten    --      4.1796                35.7619                 8.0102

                    112                    113                    114
                      A                      A                      A
 Frequencies --   3041.6370              3075.6030              3076.5812
 Red. masses --      1.0469                 1.1032                 1.1033
 Frc consts  --      5.7063                 6.1485                 6.1528
 IR Inten    --      5.0012                18.4391                19.3386

                    115                    116                    117
                      A                      A                      A
 Frequencies --   3094.2828              3107.1739              3109.1915
 Red. masses --      1.0984                 1.0964                 1.1049
 Frc consts  --      6.1964                 6.2366                 6.2933
 IR Inten    --     13.9003                 5.4391                 0.8539

                    118                    119                    120
                      A                      A                      A
 Frequencies --   3109.2510              3113.0392              3113.2495
 Red. masses --      1.1049                 1.1038                 1.1037
 Frc consts  --      6.2935                 6.3024                 6.3030
 IR Inten    --      0.5720                23.0323                65.6836

                    121                    122                    123
                      A                      A                      A
 Frequencies --   3116.6510              3118.3929              3119.1640
 Red. masses --      1.1047                 1.1034                 1.1041
 Frc consts  --      6.3225                 6.3218                 6.3288
 IR Inten    --      2.0343                55.1783                17.9654

                    124                    125                    126
                      A                      A                      A
 Frequencies --   3122.1580              3123.0943              3125.4694
 Red. masses --      1.1031                 1.1032                 1.1036
 Frc consts  --      6.3357                 6.3399                 6.3519
 IR Inten    --     34.4616                31.9239                28.5645

                    127                    128                    129
                      A                      A                      A
 Frequencies --   3126.4694              3127.4234              3129.7153
 Red. masses --      1.1034                 1.1031                 1.1041
 Frc consts  --      6.3544                 6.3570                 6.3722
 IR Inten    --     55.8930                 7.9773                38.9172

                    130                    131                    132
                      A                      A                      A
 Frequencies --   3133.8910              3135.9516              3141.3270
 Red. masses --      1.1031                 1.1035                 1.1035
 Frc consts  --      6.3830                 6.3938                 6.4160
 IR Inten    --     40.6601                19.9460                18.6975

                           ! Non-Optimized Parameters !
 Normal termination of Gaussian 16 at Mon Apr  1 17:10:04 2024.
