 Gaussian 16, Revision B.01,
 Gaussian 16:  ES64L-G16RevB.01 20-Dec-2017

 ----------------------------------------------------------------------
 #T wB97XD/def2svpp opt=tight freq int(grid=ultrafine) scf=(verytight,q
 c) Volume=tight
 ----------------------------------------------------------------------
 -------
 Monomer
 -------
 Symbolic Z-matrix:
 Charge =  0 Multiplicity = 1

 SCF Done:  E(RwB97XD) =  -677.814215839     a.u. after    8 cycles
 SCF Done:  E(RwB97XD) =  -677.811687309     a.u. after   17 cycles
 SCF Done:  E(RwB97XD) =  -677.813863491     a.u. after   13 cycles
 SCF Done:  E(RwB97XD) =  -677.815468938     a.u. after    2 cycles
 SCF Done:  E(RwB97XD) =  -677.813614078     a.u. after   16 cycles
 SCF Done:  E(RwB97XD) =  -677.815734169     a.u. after   11 cycles
 SCF Done:  E(RwB97XD) =  -677.815939452     a.u. after   10 cycles
 SCF Done:  E(RwB97XD) =  -677.816076692     a.u. after    8 cycles
 SCF Done:  E(RwB97XD) =  -677.816068566     a.u. after    9 cycles
 SCF Done:  E(RwB97XD) =  -677.816090401     a.u. after    7 cycles
 SCF Done:  E(RwB97XD) =  -677.816098483     a.u. after    4 cycles
 SCF Done:  E(RwB97XD) =  -677.816099487     a.u. after    3 cycles
 SCF Done:  E(RwB97XD) =  -677.816099686     a.u. after    2 cycles
 SCF Done:  E(RwB97XD) =  -677.816099719     a.u. after    2 cycles
 SCF Done:  E(RwB97XD) =  -677.816099725     a.u. after    2 cycles
 Optimization completed.
    -- Stationary point found.
 Normal termination of Gaussian 16 at Fri Mar 29 15:33:02 2024.

 ---------------------------------------------------------------------
 #T Geom=AllCheck Guess=TCheck SCRF=Check GenChk RwB97XD/def2SVPP Freq
 ---------------------------------------------------------------------
 Structure from the checkpoint file:  "monomer.chk"
 -------
 Monomer
 -------
 Charge =  0 Multiplicity = 1

                         Standard orientation:
 ---------------------------------------------------------------------
 Center     Atomic      Atomic             Coordinates (Angstroms)
 Number     Number       Type             X           Y           Z
 ---------------------------------------------------------------------
      1          8           0       -2.387567   -0.662064   -0.938516
      2          6           0       -1.184705   -1.216359   -0.530178
      3          6           0       -0.110732   -0.149208   -0.220715
      4          6           0       -0.021923    0.943166   -1.294564
      5          8           0        0.793161    2.004159   -0.940033
      6          7           0       -0.399050    0.516641    1.107931
      7          8           0        0.527772    0.790019    1.818856
      8          8           0       -1.567444    0.765818    1.320076
      9          7           0        1.218606   -0.854284   -0.034016
     10          8           0        1.214097   -1.820801    0.684593
     11          8           0        2.177085   -0.414584   -0.628781
     12          1           0       -2.749341   -0.155945   -0.192945
     13          1           0       -0.803923   -1.828209   -1.364287
     14          1           0       -1.282184   -1.875447    0.351815
     15          1           0       -1.041194    1.329448   -1.435568
     16          1           0        0.279309    0.443114   -2.235756
     17          1           0        1.707765    1.684574   -0.897487
 ---------------------------------------------------------------------

 SCF Done:  E(RwB97XD) =  -677.816099725     a.u. after    1 cycles

 The electronic state is 1-A.
 Alpha  occ. eigenvalues --  -19.33421 -19.33337 -19.33322 -19.33096 -19.29014
 Alpha  occ. eigenvalues --  -19.28289 -14.72660 -14.72541 -10.43797 -10.39645
 Alpha  occ. eigenvalues --  -10.38932  -1.39064  -1.37522  -1.20768  -1.20655
 Alpha  occ. eigenvalues --   -1.16302  -1.15433  -1.00298  -0.83607  -0.82714
 Alpha  occ. eigenvalues --   -0.81612  -0.71018  -0.69910  -0.68928  -0.68049
 Alpha  occ. eigenvalues --   -0.65599  -0.64336  -0.63850  -0.62852  -0.60100
 Alpha  occ. eigenvalues --   -0.57316  -0.56585  -0.54252  -0.48315  -0.47198
 Alpha  occ. eigenvalues --   -0.44571  -0.43955  -0.43377  -0.43117  -0.42673
 Alpha  occ. eigenvalues --   -0.41819  -0.40186  -0.39252
 Alpha virt. eigenvalues --   -0.03591  -0.02787   0.11401   0.13374   0.14435
 Alpha virt. eigenvalues --    0.15814   0.17259   0.19431   0.21595   0.22942
 Alpha virt. eigenvalues --    0.23896   0.26236   0.29127   0.30527   0.35815

 Mulliken charges:
               1
     1  O   -0.462415
     2  C    0.090800
     3  C   -0.168020
     4  C    0.130959
     5  O   -0.469067
     6  N    0.271650
     7  O   -0.194313
     8  O   -0.253399
     9  N    0.248253
    10  O   -0.201617
    11  O   -0.235735
    12  H    0.343284
    13  H    0.139300
    14  H    0.148920
    15  H    0.142491
    16  H    0.130701
    17  H    0.338208
 Sum of Mulliken charges =   0.00000

 Dipole moment (field-independent basis, Debye):
    X=             -0.9704    Y=             -1.0579    Z=             -1.9009  Tot=              2.3821
  Exact polarizability:  71.033   1.975  57.562  -0.393  -2.602  57.613
 Approx polarizability:  94.034   4.526  68.768  -0.919  -7.058  69.681
   1 Symmetry operations used in ECPInt.
 ECPInt:  NShTT=    3081 NPrTT=   12407 LenC2=    3033 LenP2D=    9292.
 LDataN:  DoStor=T MaxTD1= 6 Len=  172
 Calling FoFJK, ICntrl=    100127 FMM=F ISym2X=0 I1Cent= 0 IOpClX= 0 NMat=1 NMatS=1 NMatT=0.
 Full mass-weighted force constant matrix:
 Low frequencies ---  -10.3145   -3.2712   -0.0017   -0.0007   -0.0004   13.6215
 Low frequencies ---   52.1567   86.1507  138.9383
 Diagonal vibrational polarizability:

                      1                      2                      3
                      A                      A                      A
 Frequencies --     52.1378                86.1452               138.9308
 Red. masses --     11.9670                13.1261                 5.5268
 Frc consts  --      0.0192                 0.0574                 0.0629
 IR Inten    --      0.2719                 0.1256                 2.2413

                      4                      5                      6
                      A                      A                      A
 Frequencies --    168.9644               182.0736               227.4670
 Red. masses --      4.1022                 6.5785                 6.7630
 Frc consts  --      0.0690                 0.1285                 0.2062
 IR Inten    --      5.6613                 2.2161                 5.1199

                      7                      8                      9
                      A                      A                      A
 Frequencies --    233.9147               293.4872               326.5438
 Red. masses --      7.7989                 2.5825                 3.0931
 Frc consts  --      0.2514                 0.1311                 0.1943
 IR Inten    --      8.7927                 5.9765                 3.4419

                     10                     11                     12
                      A                      A                      A
 Frequencies --    377.7439               421.3181               445.2006
 Red. masses --      6.6832                 7.8318                12.2689
 Frc consts  --      0.5619                 0.8191                 1.4327
 IR Inten    --      1.7454                 2.8898                 3.6162

                     13                     14                     15
                      A                      A                      A
 Frequencies --    539.3012               550.6394               582.5807
 Red. masses --      1.2615                 1.3175                 4.5433
 Frc consts  --      0.2162                 0.2354                 0.9085
 IR Inten    --    194.3921                43.7751                88.3045

                     16                     17                     18
                      A                      A                      A
 Frequencies --    605.1687               736.0089               763.9078
 Red. masses --      2.7286                 7.4433                 3.3591
 Frc consts  --      0.5888                 2.3757                 1.1549
 IR Inten    --     90.3898                 6.1310                13.3930

                     19                     20                     21
                      A                      A                      A
 Frequencies --    809.8942               902.3506               920.5552
 Red. masses --      6.8594                 6.9868                 5.3354
 Frc consts  --      2.6509                 3.3518                 2.6639
 IR Inten    --      8.9864                19.0490                38.6851

                     22                     23                     24
                      A                      A                      A
 Frequencies --    964.3589              1096.3048              1121.0632
 Red. masses --      1.5910                 2.1347                 3.5570
 Frc consts  --      0.8718                 1.5117                 2.6339
 IR Inten    --     19.2971                41.5025                42.5091

                     25                     26                     27
                      A                      A                      A
 Frequencies --   1174.2110              1193.7543              1203.9997
 Red. masses --      4.3186                 4.6669                 3.4080
 Frc consts  --      3.5082                 3.9184                 2.9108
 IR Inten    --     67.7763                87.6192                34.4580

                     28                     29                     30
                      A                      A                      A
 Frequencies --   1255.2550              1303.4457              1403.1141
 Red. masses --      1.2463                 1.5893                 1.3305
 Frc consts  --      1.1570                 1.5909                 1.5433
 IR Inten    --     32.8204                48.9547                18.9449

                     31                     32                     33
                      A                      A                      A
 Frequencies --   1408.1194              1428.5910              1451.9082
 Red. masses --      1.2971                 1.3107                 1.2590
 Frc consts  --      1.5153                 1.5760                 1.5636
 IR Inten    --     10.3146                59.1125                86.1939

                     34                     35                     36
                      A                      A                      A
 Frequencies --   1481.7811              1492.7280              1502.8705
 Red. masses --      8.9945                 1.1460                 1.1393
 Frc consts  --     11.6358                 1.5045                 1.5160
 IR Inten    --    130.3905                 6.3768                 8.5251

                     37                     38                     39
                      A                      A                      A
 Frequencies --   1528.3735              1778.3738              1792.4201
 Red. masses --      5.6941                13.5062                13.5469
 Frc consts  --      7.8367                25.1670                25.6431
 IR Inten    --     38.1624               335.6369               212.9344

                     40                     41                     42
                      A                      A                      A
 Frequencies --   3042.8600              3060.2329              3133.0570
 Red. masses --      1.0710                 1.0630                 1.1077
 Frc consts  --      5.8425                 5.8654                 6.4066
 IR Inten    --     19.0073                12.4505                 5.9964

                     43                     44                     45
                      A                      A                      A
 Frequencies --   3166.7166              3730.2819              3735.5642
 Red. masses --      1.0984                 1.0646                 1.0653
 Frc consts  --      6.4895                 8.7283                 8.7585
 IR Inten    --      1.0000                88.9851                75.7664

                           ! Non-Optimized Parameters !
 Normal termination of Gaussian 16 at Fri Mar 29 15:35:20 2024.
