 Gaussian 16, Revision B.01,
 Gaussian 16:  ES64L-G16RevB.01 20-Dec-2017

 ----------------------------------------------------------------------
 #T wB97XD/def2svpp opt=tight freq int(grid=ultrafine) scf=(verytight,q
 c) Volume=tight
 ----------------------------------------------------------------------
 -----
 Dimer
 -----
 Symbolic Z-matrix:
 Charge =  0 Multiplicity = 1

 SCF Done:  E(RwB97XD) =  -993.868295724     a.u. after    8 cycles
 SCF Done:  E(RwB97XD) =  -993.862101821     a.u. after   15 cycles
 SCF Done:  E(RwB97XD) =  -993.869461069     a.u. after   11 cycles
 SCF Done:  E(RwB97XD) =  -993.870384472     a.u. after   11 cycles
 SCF Done:  E(RwB97XD) =  -993.870416744     a.u. after   11 cycles
 SCF Done:  E(RwB97XD) =  -993.871107854     a.u. after    9 cycles
 SCF Done:  E(RwB97XD) =  -993.871676081     a.u. after    9 cycles
 SCF Done:  E(RwB97XD) =  -993.870525708     a.u. after   11 cycles
 SCF Done:  E(RwB97XD) =  -993.871123836     a.u. after   13 cycles
 SCF Done:  E(RwB97XD) =  -993.871749692     a.u. after    2 cycles
 SCF Done:  E(RwB97XD) =  -993.871876273     a.u. after    2 cycles
 SCF Done:  E(RwB97XD) =  -993.871876799     a.u. after    2 cycles
 SCF Done:  E(RwB97XD) =  -993.871877227     a.u. after    2 cycles
 SCF Done:  E(RwB97XD) =  -993.871877226     a.u. after    2 cycles
 SCF Done:  E(RwB97XD) =  -993.871877309     a.u. after    2 cycles
 SCF Done:  E(RwB97XD) =  -993.871877317     a.u. after    2 cycles
 SCF Done:  E(RwB97XD) =  -993.871877320     a.u. after    2 cycles
 SCF Done:  E(RwB97XD) =  -993.871877321     a.u. after    2 cycles
 SCF Done:  E(RwB97XD) =  -993.871877322     a.u. after    2 cycles
 Optimization completed.
    -- Stationary point found.
 Normal termination of Gaussian 16 at Fri Feb  3 13:05:57 2023.

 ---------------------------------------------------------------------
 #T Geom=AllCheck Guess=TCheck SCRF=Check GenChk RwB97XD/def2SVPP Freq
 ---------------------------------------------------------------------
 Structure from the checkpoint file:  "35.chk"
 -----
 Dimer
 -----
 Charge =  0 Multiplicity = 1

                         Standard orientation:
 ---------------------------------------------------------------------
 Center     Atomic      Atomic             Coordinates (Angstroms)
 Number     Number       Type             X           Y           Z
 ---------------------------------------------------------------------
      1          6           0       -3.700748    1.376418   -0.442067
      2          6           0       -2.645862    0.316120   -0.091275
      3          6           0       -2.938672   -0.270249    1.302172
      4          8           0       -2.090184   -1.344544    1.642475
      5          6           0       -2.671082   -0.796880   -1.158454
      6          8           0       -1.731979   -1.827080   -0.917661
      7          6           0       -1.276160    0.994407   -0.058602
      8          8           0       -0.801595    1.280197   -1.248409
      9          8           0       -0.695359    1.242237    0.980514
     10          1           0       -3.492675    1.828066   -1.425812
     11          1           0       -3.712057    2.182300    0.311350
     12          1           0       -4.706829    0.922657   -0.473021
     13          1           0       -3.963864   -0.677307    1.308303
     14          1           0       -2.883779    0.531521    2.059676
     15          1           0       -1.170572   -1.029015    1.735926
     16          1           0       -2.445518   -0.376562   -2.149597
     17          1           0       -3.691610   -1.226440   -1.190822
     18          1           0       -1.814125   -2.064026    0.036094
     19          1           0        0.164865    1.574763   -1.178244
     20          6           0        3.700747   -1.376430   -0.442032
     21          6           0        2.645862   -0.316124   -0.091264
     22          6           0        2.938672    0.270280    1.302168
     23          8           0        2.090183    1.344583    1.642445
     24          6           0        2.671082    0.796849   -1.158473
     25          8           0        1.731986    1.827060   -0.917703
     26          6           0        1.276158   -0.994405   -0.058577
     27          8           0        0.801606   -1.280252   -1.248374
     28          8           0        0.695344   -1.242182    0.980545
     29          1           0        3.712056   -2.182296    0.311403
     30          1           0        4.706828   -0.922670   -0.472995
     31          1           0        3.492674   -1.828100   -1.425767
     32          1           0        3.963863    0.677340    1.308288
     33          1           0        2.883781   -0.531471    2.059693
     34          1           0        1.170572    1.029053    1.735910
     35          1           0        2.445511    0.376504   -2.149602
     36          1           0        3.691613    1.226402   -1.190859
     37          1           0        1.814129    2.064027    0.036047
     38          1           0       -0.164859   -1.574805   -1.178210
 ---------------------------------------------------------------------

 SCF Done:  E(RwB97XD) =  -993.871877322     a.u. after    1 cycles

 The electronic state is 1-A.
 Alpha  occ. eigenvalues --  -19.29046 -19.29045 -19.27387 -19.27387 -19.26431
 Alpha  occ. eigenvalues --  -19.26429 -19.25416 -19.25416 -10.43734 -10.43730
 Alpha  occ. eigenvalues --  -10.35568 -10.35568 -10.34961 -10.34961 -10.33014
 Alpha  occ. eigenvalues --  -10.33014 -10.30752 -10.30752  -1.20809  -1.20088
 Alpha  occ. eigenvalues --   -1.14461  -1.14077  -1.12308  -1.11579  -1.10573
 Alpha  occ. eigenvalues --   -1.10324  -0.92625  -0.92255  -0.78636  -0.78494
 Alpha  occ. eigenvalues --   -0.78091  -0.77761  -0.76277  -0.74812  -0.68240
 Alpha  occ. eigenvalues --   -0.68059  -0.64572  -0.63950  -0.61122  -0.60410
 Alpha  occ. eigenvalues --   -0.58678  -0.58557  -0.58342  -0.56565  -0.56450
 Alpha  occ. eigenvalues --   -0.55153  -0.55151  -0.54196  -0.52275  -0.52189
 Alpha  occ. eigenvalues --   -0.51555  -0.50968  -0.50690  -0.50347  -0.49709
 Alpha  occ. eigenvalues --   -0.49524  -0.48214  -0.48051  -0.46000  -0.45983
 Alpha  occ. eigenvalues --   -0.44373  -0.43403  -0.42310  -0.42234  -0.41240
 Alpha  occ. eigenvalues --   -0.39533  -0.39254  -0.38513  -0.37104  -0.36195
 Alpha  occ. eigenvalues --   -0.35982  -0.35549
 Alpha virt. eigenvalues --    0.07215   0.07546   0.13170   0.13306   0.15348
 Alpha virt. eigenvalues --    0.15694   0.16356   0.17507   0.18038   0.18880
 Alpha virt. eigenvalues --    0.20963   0.21080   0.21518   0.21898   0.22431

 Mulliken charges:
               1
     1  C   -0.281361
     2  C   -0.402384
     3  C    0.092186
     4  O   -0.527465
     5  C    0.096183
     6  O   -0.536285
     7  C    0.267429
     8  O   -0.379360
     9  O   -0.288748
    10  H    0.147224
    11  H    0.139109
    12  H    0.131505
    13  H    0.107140
    14  H    0.121029
    15  H    0.360225
    16  H    0.136303
    17  H    0.106664
    18  H    0.348330
    19  H    0.362277
    20  C   -0.281361
    21  C   -0.402382
    22  C    0.092187
    23  O   -0.527465
    24  C    0.096180
    25  O   -0.536284
    26  C    0.267431
    27  O   -0.379360
    28  O   -0.288751
    29  H    0.139108
    30  H    0.131505
    31  H    0.147225
    32  H    0.107140
    33  H    0.121029
    34  H    0.360225
    35  H    0.136303
    36  H    0.106664
    37  H    0.348331
    38  H    0.362277
 Sum of Mulliken charges =  -0.00000

 Dipole moment (field-independent basis, Debye):
    X=              0.0000    Y=             -0.0001    Z=             -1.1589  Tot=              1.1589
  Exact polarizability: 150.837  -1.854 109.401  -0.000   0.000 118.302
 Approx polarizability: 142.529   1.463 123.643  -0.000   0.001 146.669
   1 Symmetry operations used in ECPInt.
 ECPInt:  NShTT=   11026 NPrTT=   44250 LenC2=   10602 LenP2D=   29723.
 LDataN:  DoStor=T MaxTD1= 6 Len=  172
 Calling FoFJK, ICntrl=    100127 FMM=F ISym2X=0 I1Cent= 0 IOpClX= 0 NMat=1 NMatS=1 NMatT=0.
 Full mass-weighted force constant matrix:
 Low frequencies ---    0.0001    0.0005    0.0010    1.1155    5.7191    7.6650
 Low frequencies ---   43.7842   50.7271   81.3151
 Diagonal vibrational polarizability:

                      1                      2                      3
                      A                      A                      A
 Frequencies --     43.7297                50.4979                81.2938
 Red. masses --      4.2065                10.3881                 6.6276
 Frc consts  --      0.0047                 0.0156                 0.0258
 IR Inten    --      0.2239                 7.5290                 0.1913

                      4                      5                      6
                      A                      A                      A
 Frequencies --     88.2299               107.2257               121.8925
 Red. masses --      5.0772                 5.5136                 5.0463
 Frc consts  --      0.0233                 0.0373                 0.0442
 IR Inten    --      0.0673                 0.7767                 0.7294

                      7                      8                      9
                      A                      A                      A
 Frequencies --    152.4691               179.8522               187.8072
 Red. masses --      6.1721                11.6367                 4.5335
 Frc consts  --      0.0845                 0.2218                 0.0942
 IR Inten    --      0.4706                 0.0015                 1.3086

                     10                     11                     12
                      A                      A                      A
 Frequencies --    194.2870               221.1493               222.7243
 Red. masses --      4.5611                 2.7632                 1.5744
 Frc consts  --      0.1014                 0.0796                 0.0460
 IR Inten    --      5.3201                 0.9433                 6.8419

                     13                     14                     15
                      A                      A                      A
 Frequencies --    233.2270               239.0372               256.9326
 Red. masses --      1.3587                 1.8467                 2.4133
 Frc consts  --      0.0435                 0.0622                 0.0939
 IR Inten    --      0.0064                11.2140                 4.1319

                     16                     17                     18
                      A                      A                      A
 Frequencies --    264.8170               279.9720               295.1291
 Red. masses --      2.7262                 3.2020                 2.9475
 Frc consts  --      0.1126                 0.1479                 0.1513
 IR Inten    --      0.0083                 0.1542                14.1434

                     19                     20                     21
                      A                      A                      A
 Frequencies --    316.0891               318.1832               352.8016
 Red. masses --      5.7371                 4.8506                 3.7362
 Frc consts  --      0.3377                 0.2893                 0.2740
 IR Inten    --      9.4136                 9.2921                30.7227

                     22                     23                     24
                      A                      A                      A
 Frequencies --    364.7159               383.9308               386.3202
 Red. masses --      3.2257                 2.7808                 2.6222
 Frc consts  --      0.2528                 0.2415                 0.2306
 IR Inten    --      3.8464                 3.5645                 0.8122

                     25                     26                     27
                      A                      A                      A
 Frequencies --    405.5696               419.7566               535.3567
 Red. masses --      4.5520                 5.5533                 4.2068
 Frc consts  --      0.4411                 0.5765                 0.7104
 IR Inten    --      1.0127                41.6849                 1.1076

                     28                     29                     30
                      A                      A                      A
 Frequencies --    545.9810               578.9091               579.0226
 Red. masses --      4.1705                 3.9207                 4.5464
 Frc consts  --      0.7325                 0.7742                 0.8981
 IR Inten    --      5.4520                26.2086                13.1023

                     31                     32                     33
                      A                      A                      A
 Frequencies --    600.2528               608.6800               610.5292
 Red. masses --      1.1600                 2.5344                 3.5873
 Frc consts  --      0.2462                 0.5532                 0.7878
 IR Inten    --     59.9055                40.6567                 1.9100

                     34                     35                     36
                      A                      A                      A
 Frequencies --    628.4618               784.9674               791.4658
 Red. masses --      1.3417                 5.0439                 4.7895
 Frc consts  --      0.3122                 1.8311                 1.7677
 IR Inten    --    347.7112                 0.3801                11.4050

                     37                     38                     39
                      A                      A                      A
 Frequencies --    806.0487               813.8575               877.2929
 Red. masses --      3.3693                 4.6995                 1.2632
 Frc consts  --      1.2898                 1.8340                 0.5728
 IR Inten    --     14.0238                29.4959               185.4295

                     40                     41                     42
                      A                      A                      A
 Frequencies --    896.4513               916.0171               916.5569
 Red. masses --      1.8077                 1.4421                 1.8477
 Frc consts  --      0.8559                 0.7129                 0.9145
 IR Inten    --      0.5770                20.2825               185.2840

                     43                     44                     45
                      A                      A                      A
 Frequencies --    935.7106               936.5256               989.3207
 Red. masses --      1.5601                 1.6025                 1.3959
 Frc consts  --      0.8048                 0.8281                 0.8050
 IR Inten    --     18.0984                21.5453                 1.5800

                     46                     47                     48
                      A                      A                      A
 Frequencies --    989.9142              1024.6437              1026.6980
 Red. masses --      1.3977                 1.3816                 1.4127
 Frc consts  --      0.8070                 0.8547                 0.8774
 IR Inten    --      4.9196                 6.1435                19.3914

                     49                     50                     51
                      A                      A                      A
 Frequencies --   1082.0325              1106.3066              1114.3121
 Red. masses --      1.1849                 1.1221                 6.2430
 Frc consts  --      0.8174                 0.8092                 4.5673
 IR Inten    --     83.5232                 4.7065                 0.0985

                     52                     53                     54
                      A                      A                      A
 Frequencies --   1118.1195              1124.8018              1128.0708
 Red. masses --      5.1416                 6.3071                 4.7624
 Frc consts  --      3.7873                 4.7015                 3.5707
 IR Inten    --     67.6939                 5.9429               173.7300

                     55                     56                     57
                      A                      A                      A
 Frequencies --   1172.9951              1180.5159              1184.9098
 Red. masses --      2.5129                 1.8843                 2.2857
 Frc consts  --      2.0371                 1.5472                 1.8907
 IR Inten    --     14.2600               151.5966               162.2633

                     58                     59                     60
                      A                      A                      A
 Frequencies --   1185.7547              1238.3011              1243.2971
 Red. masses --      1.6588                 1.5898                 1.5190
 Frc consts  --      1.3741                 1.4363                 1.3835
 IR Inten    --     31.6203                 2.3359                61.9942

                     61                     62                     63
                      A                      A                      A
 Frequencies --   1292.5419              1296.1034              1309.9964
 Red. masses --      1.9770                 2.0371                 1.8508
 Frc consts  --      1.9460                 2.0162                 1.8713
 IR Inten    --     50.3916                 4.8271                69.2193

                     64                     65                     66
                      A                      A                      A
 Frequencies --   1314.8638              1370.8370              1373.7853
 Red. masses --      1.6818                 1.4897                 1.5624
 Frc consts  --      1.7131                 1.6493                 1.7374
 IR Inten    --      4.1645                84.2827                78.0952

                     67                     68                     69
                      A                      A                      A
 Frequencies --   1395.8262              1404.7425              1409.7148
 Red. masses --      1.5299                 1.4412                 1.2415
 Frc consts  --      1.7562                 1.6756                 1.4537
 IR Inten    --     72.4908                38.5363                 3.9785

                     70                     71                     72
                      A                      A                      A
 Frequencies --   1411.3062              1412.4795              1415.2560
 Red. masses --      1.2513                 1.3021                 1.5130
 Frc consts  --      1.4684                 1.5306                 1.7855
 IR Inten    --      4.2986                24.9794                41.3901

                     73                     74                     75
                      A                      A                      A
 Frequencies --   1440.1612              1442.4371              1472.7349
 Red. masses --      1.3055                 1.2946                 1.3243
 Frc consts  --      1.5953                 1.5870                 1.6923
 IR Inten    --     20.6904                 5.2951                 0.8917

                     76                     77                     78
                      A                      A                      A
 Frequencies --   1486.5203              1486.8944              1489.8774
 Red. masses --      1.0779                 1.0773                 1.1933
 Frc consts  --      1.4033                 1.4033                 1.5607
 IR Inten    --      3.9501                 5.0153                45.9611

                     79                     80                     81
                      A                      A                      A
 Frequencies --   1496.0477              1496.0998              1500.4532
 Red. masses --      1.0646                 1.0921                 1.1274
 Frc consts  --      1.4039                 1.4403                 1.4954
 IR Inten    --     33.2520                38.4715                51.5767

                     82                     83                     84
                      A                      A                      A
 Frequencies --   1501.1982              1513.6988              1514.0197
 Red. masses --      1.1217                 1.3111                 1.1409
 Frc consts  --      1.4894                 1.7699                 1.5409
 IR Inten    --      1.2666               238.0188                 0.1038

                     85                     86                     87
                      A                      A                      A
 Frequencies --   1547.7531              1553.8046              1823.3765
 Red. masses --      1.2361                 1.3449                 8.2241
 Frc consts  --      1.7447                 1.9131                16.1099
 IR Inten    --     81.4150                15.7115                72.0744

                     88                     89                     90
                      A                      A                      A
 Frequencies --   1850.9852              2972.5984              3000.6319
 Red. masses --      8.6868                 1.0700                 1.0718
 Frc consts  --     17.5354                 5.5706                 5.6860
 IR Inten    --    456.1230                12.9860              3128.2608

                     91                     92                     93
                      A                      A                      A
 Frequencies --   3029.3636              3032.2281              3037.5317
 Red. masses --      1.0701                 1.0663                 1.0381
 Frc consts  --      5.7857                 5.7761                 5.6432
 IR Inten    --     13.3082               215.8681                 3.2412

                     94                     95                     96
                      A                      A                      A
 Frequencies --   3037.9521              3056.6194              3056.7819
 Red. masses --      1.0412                 1.0608                 1.0609
 Frc consts  --      5.6618                 5.8392                 5.8408
 IR Inten    --     13.7981                19.5814                26.3476

                     97                     98                     99
                      A                      A                      A
 Frequencies --   3118.4772              3118.6103              3130.6213
 Red. masses --      1.1104                 1.1103                 1.1050
 Frc consts  --      6.3623                 6.3623                 6.3807
 IR Inten    --     34.4207                 3.8241                28.5904

                    100                    101                    102
                      A                      A                      A
 Frequencies --   3130.6336              3144.1969              3144.2264
 Red. masses --      1.1050                 1.1033                 1.1036
 Frc consts  --      6.3806                 6.4266                 6.4282
 IR Inten    --      3.0448                 2.1238                 0.0698

                    103                    104                    105
                      A                      A                      A
 Frequencies --   3146.6467              3146.8996              3440.8329
 Red. masses --      1.1016                 1.1015                 1.0659
 Frc consts  --      6.4265                 6.4267                 7.4355
 IR Inten    --      5.1100                26.9996                32.5942

                    106                    107                    108
                      A                      A                      A
 Frequencies --   3442.0832              3638.0938              3642.6966
 Red. masses --      1.0661                 1.0661                 1.0661
 Frc consts  --      7.4423                 8.3134                 8.3349
 IR Inten    --    553.1091               613.4943                 7.7411

                           ! Non-Optimized Parameters !
 Normal termination of Gaussian 16 at Fri Feb  3 13:22:30 2023.
