 Gaussian 16, Revision B.01,
 Gaussian 16:  ES64L-G16RevB.01 20-Dec-2017

 --------------------------------------------------------------
 #T wB97XD//def2svpp Volume=tight Geom=AllCheckpoint Guess=Read
 --------------------------------------------------------------
 Structure from the checkpoint file:  "44.chk"
 -------
 Monomer
 -------
 Charge =  0 Multiplicity = 1

                         Standard orientation:
 ---------------------------------------------------------------------
 Center     Atomic      Atomic             Coordinates (Angstroms)
 Number     Number       Type             X           Y           Z
 ---------------------------------------------------------------------
      1          6           0        0.855333    1.740818   -0.918066
      2          6           0        0.000000    0.854187    0.000000
      3          6           0       -0.855336    1.740813    0.918067
      4          6           0       -0.887664   -0.010915   -0.904523
      5         17           0       -1.997724   -1.107928   -0.009102
      6          6           0        0.887666   -0.010914    0.904522
      7         17           0        1.997725   -1.107928    0.009101
      8          1           0        0.215639    2.396815   -1.533904
      9          1           0        1.485962    1.136744   -1.590890
     10          1           0        1.520755    2.385734   -0.317775
     11          1           0       -1.520765    2.385721    0.317777
     12          1           0       -0.215643    2.396818    1.533900
     13          1           0       -1.485957    1.136735    1.590897
     14          1           0       -0.272824   -0.654389   -1.550163
     15          1           0       -1.524087    0.627917   -1.535380
     16          1           0        0.272827   -0.654387    1.550165
     17          1           0        1.524090    0.627920    1.535378
 ---------------------------------------------------------------------

 SCF Done:  E(RwB97XD) =  -1116.45814942     A.U. after    1 cycles

 The electronic state is 1-A.
 Alpha  occ. eigenvalues -- -101.66225-101.66223 -10.35170 -10.35166 -10.33628
 Alpha  occ. eigenvalues --  -10.29731 -10.29729  -9.56990  -9.56989  -7.32365
 Alpha  occ. eigenvalues --   -7.32365  -7.31414  -7.31414  -7.31382  -7.31381
 Alpha  occ. eigenvalues --   -0.97956  -0.93955  -0.89559  -0.79467  -0.76575
 Alpha  occ. eigenvalues --   -0.76248  -0.64062  -0.57745  -0.57658  -0.54294
 Alpha  occ. eigenvalues --   -0.52567  -0.50560  -0.49154  -0.47108  -0.46685
 Alpha  occ. eigenvalues --   -0.45431  -0.43789  -0.42793  -0.38251  -0.37690
 Alpha  occ. eigenvalues --   -0.37098  -0.36910
 Alpha virt. eigenvalues --    0.10698   0.12205   0.13875   0.16110   0.18057
 Alpha virt. eigenvalues --    0.18126   0.19367   0.19512   0.21639   0.23616
 Alpha virt. eigenvalues --    0.24647   0.25794   0.26323   0.28500   0.28686

 Mulliken charges:
               1
     1  C   -0.277850
     2  C   -0.271321
     3  C   -0.277850
     4  C   -0.124965
     5  Cl  -0.158712
     6  C   -0.124965
     7  Cl  -0.158712
     8  H    0.122107
     9  H    0.135918
    10  H    0.124822
    11  H    0.124823
    12  H    0.122107
    13  H    0.135918
    14  H    0.163115
    15  H    0.151225
    16  H    0.163115
    17  H    0.151226
 Sum of Mulliken charges =  -0.00000

 Dipole moment (field-independent basis, Debye):
    X=              0.0000    Y=              2.4343    Z=             -0.0000  Tot=              2.4343
 Evaluate density.
 Using the total density.
 Monte-Carlo method of calculating molar volume:
 based on  0.001 e/bohr**3 density envelope.
 Number of points per bohr**3 =  100 CutOff= 1.00D-04
 Using the SCF density.
 There are      1989 points.  Will hold      1989 in memory.
 LenV=  1048286595 MDV=  1048576000.
 Box volume = 7876.939 fraction occupied=0.144
 Integrated density= 1.2925500786837901D+02 error= 5.5255007868379010D+01

 Normal termination of Gaussian 16 at Mon Jul 10 17:30:15 2023.
