 Gaussian 16, Revision B.01,
 Gaussian 16:  ES64L-G16RevB.01 20-Dec-2017

 ----------------------------------------------------------------------
 #T wB97XD/def2svpp opt=tight freq int(grid=ultrafine) scf=(verytight,q
 c) Volume=tight
 ----------------------------------------------------------------------
 -------
 Monomer
 -------
 Symbolic Z-matrix:
 Charge =  0 Multiplicity = 1

 SCF Done:  E(RwB97XD) =  -2770.85222213     a.u. after    7 cycles
 Optimization completed.
    -- Stationary point found.
 Normal termination of Gaussian 16 at Mon Feb  6 10:23:05 2023.

 ---------------------------------------------------------------------
 #T Geom=AllCheck Guess=TCheck SCRF=Check GenChk RwB97XD/def2SVPP Freq
 ---------------------------------------------------------------------
 Structure from the checkpoint file:  "18.chk"
 -------
 Monomer
 -------
 Charge =  0 Multiplicity = 1

                         Standard orientation:
 ---------------------------------------------------------------------
 Center     Atomic      Atomic             Coordinates (Angstroms)
 Number     Number       Type             X           Y           Z
 ---------------------------------------------------------------------
      1          6           0        2.554056    0.911029   -0.000024
      2          6           0        1.325182   -0.016489    0.000000
      3          6           0        1.351891   -0.893763   -1.257823
      4          6           0        1.351878   -0.893682    1.257880
      5          6           0        0.099376    0.908010   -0.000033
      6         35           0       -1.630893    0.002779   -0.000001
      7          1           0        2.570605    1.559430    0.894259
      8          1           0        2.570614    1.559372   -0.894348
      9          1           0        3.483021    0.314361    0.000000
     10          1           0        2.270049   -1.506754   -1.278562
     11          1           0        1.334445   -0.277217   -2.174631
     12          1           0        0.485373   -1.575599   -1.289493
     13          1           0        1.334426   -0.277078    2.174648
     14          1           0        2.270035   -1.506674    1.278666
     15          1           0        0.485358   -1.575514    1.289586
     16          1           0        0.091511    1.548866   -0.894582
     17          1           0        0.091509    1.548926    0.894473
 ---------------------------------------------------------------------

 SCF Done:  E(RwB97XD) =  -2770.85222213     a.u. after    1 cycles

 The electronic state is 1-A.
 Alpha  occ. eigenvalues -- -483.04272 -62.62491 -56.43255 -56.42905 -56.42897
 Alpha  occ. eigenvalues --  -10.34448 -10.32321 -10.29289 -10.28470 -10.28468
 Alpha  occ. eigenvalues --   -8.79437  -6.61962  -6.60686  -6.60658  -2.72329
 Alpha  occ. eigenvalues --   -2.71972  -2.71950  -2.70933  -2.70933  -0.94117
 Alpha  occ. eigenvalues --   -0.87308  -0.78375  -0.77913  -0.75308  -0.62997
 Alpha  occ. eigenvalues --   -0.55931  -0.55403  -0.53463  -0.50576  -0.48994
 Alpha  occ. eigenvalues --   -0.46227  -0.45233  -0.44969  -0.42963  -0.41678
 Alpha  occ. eigenvalues --   -0.40873  -0.35207  -0.35085
 Alpha virt. eigenvalues --    0.08479   0.12672   0.16877   0.17274   0.18953
 Alpha virt. eigenvalues --    0.19507   0.19768   0.20992   0.22379   0.25081
 Alpha virt. eigenvalues --    0.26096   0.26486   0.26528   0.28532   0.30039

 Mulliken charges:
               1
     1  C   -0.274401
     2  C   -0.258824
     3  C   -0.270269
     4  C   -0.270270
     5  C   -0.188574
     6  Br  -0.133720
     7  H    0.117799
     8  H    0.117799
     9  H    0.124803
    10  H    0.116995
    11  H    0.113753
    12  H    0.134639
    13  H    0.113753
    14  H    0.116995
    15  H    0.134639
    16  H    0.152442
    17  H    0.152442
 Sum of Mulliken charges =  -0.00000

 Dipole moment (field-independent basis, Debye):
    X=              1.8974    Y=              0.6319    Z=             -0.0000  Tot=              1.9998
  Exact polarizability:  81.640   3.667  63.548  -0.000  -0.000  62.043
 Approx polarizability:  84.126   5.299  71.291  -0.000  -0.000  68.197
   1 Symmetry operations used in ECPInt.
 ECPInt:  NShTT=    2080 NPrTT=    9183 LenC2=    2063 LenP2D=    7287.
 LDataN:  DoStor=T MaxTD1= 6 Len=  172
 Calling FoFJK, ICntrl=    100127 FMM=F ISym2X=0 I1Cent= 0 IOpClX= 0 NMat=1 NMatS=1 NMatT=0.
 Full mass-weighted force constant matrix:
 Low frequencies ---  -10.3226   -4.0808    0.0038    0.0069    0.0086    5.1407
 Low frequencies ---  103.6969  183.2848  225.7309
 Diagonal vibrational polarizability:

                      1                      2                      3
                      A                      A                      A
 Frequencies --    103.6936               183.2845               225.7294
 Red. masses --      2.4536                 4.2891                 1.0737
 Frc consts  --      0.0155                 0.0849                 0.0322
 IR Inten    --      0.4857                 0.6899                 0.0471

                      4                      5                      6
                      A                      A                      A
 Frequencies --    271.3094               286.1573               300.4537
 Red. masses --      1.2876                 1.0415                 1.9679
 Frc consts  --      0.0558                 0.0503                 0.1047
 IR Inten    --      0.1440                 0.1061                 0.6304

                      7                      8                      9
                      A                      A                      A
 Frequencies --    342.5138               397.8054               424.5208
 Red. masses --      2.0684                 2.3402                 2.0224
 Frc consts  --      0.1430                 0.2182                 0.2147
 IR Inten    --      0.0699                 0.2444                 0.0530

                     10                     11                     12
                      A                      A                      A
 Frequencies --    469.9675               692.0115               768.6566
 Red. masses --      2.3589                 4.4677                 3.5685
 Frc consts  --      0.3070                 1.2605                 1.2422
 IR Inten    --      1.2228                19.6941                 4.9053

                     13                     14                     15
                      A                      A                      A
 Frequencies --    873.2666               936.6476               961.9008
 Red. masses --      1.5227                 2.0159                 1.5569
 Frc consts  --      0.6842                 1.0420                 0.8487
 IR Inten    --      2.1822                12.7120                 1.2970

                     16                     17                     18
                      A                      A                      A
 Frequencies --    963.0701               974.7579              1053.9336
 Red. masses --      1.5540                 1.2046                 1.4135
 Frc consts  --      0.8492                 0.6743                 0.9250
 IR Inten    --      0.6990                 0.0005                 0.2735

                     19                     20                     21
                      A                      A                      A
 Frequencies --   1056.4700              1161.2754              1232.0830
 Red. masses --      1.3477                 1.1890                 1.8108
 Frc consts  --      0.8863                 0.9447                 1.6196
 IR Inten    --      0.2064                 2.0330                17.5574

                     22                     23                     24
                      A                      A                      A
 Frequencies --   1301.5996              1315.6742              1322.3135
 Red. masses --      2.7395                 1.5169                 1.9290
 Frc consts  --      2.7345                 1.5470                 1.9873
 IR Inten    --     10.9067                17.1773                 0.7411

                     25                     26                     27
                      A                      A                      A
 Frequencies --   1409.1055              1413.2103              1435.0674
 Red. masses --      1.2738                 1.3340                 1.2242
 Frc consts  --      1.4902                 1.5697                 1.4854
 IR Inten    --      9.6234                14.4307                11.6194

                     28                     29                     30
                      A                      A                      A
 Frequencies --   1467.7636              1473.7871              1481.3773
 Red. masses --      1.0965                 1.0443                 1.0438
 Frc consts  --      1.3917                 1.3364                 1.3495
 IR Inten    --      2.8388                 0.0794                 0.0687

                     31                     32                     33
                      A                      A                      A
 Frequencies --   1481.8319              1502.6928              1502.9081
 Red. masses --      1.0414                 1.0683                 1.0702
 Frc consts  --      1.3473                 1.4213                 1.4242
 IR Inten    --      0.0416                 7.6915                14.5505

                     34                     35                     36
                      A                      A                      A
 Frequencies --   1515.8530              3023.9957              3028.6597
 Red. masses --      1.0736                 1.0370                 1.0376
 Frc consts  --      1.4535                 5.5870                 5.6076
 IR Inten    --     18.7186                22.9006                30.3118

                     37                     38                     39
                      A                      A                      A
 Frequencies --   3032.9678              3091.2477              3115.9852
 Red. masses --      1.0386                 1.0597                 1.1053
 Frc consts  --      5.6292                 5.9663                 6.3230
 IR Inten    --      8.8664                12.4660                 6.6700

                     40                     41                     42
                      A                      A                      A
 Frequencies --   3118.8383              3119.0704              3123.6573
 Red. masses --      1.1048                 1.1047                 1.1038
 Frc consts  --      6.3316                 6.3322                 6.3455
 IR Inten    --     23.5293                 5.5111                41.6031

                     43                     44                     45
                      A                      A                      A
 Frequencies --   3134.1852              3136.6503              3164.4074
 Red. masses --      1.1046                 1.1038                 1.1113
 Frc consts  --      6.3933                 6.3984                 6.5562
 IR Inten    --      2.0450                24.1678                 5.0698

 Optimization completed.
    -- Stationary point found.
 Normal termination of Gaussian 16 at Mon Feb  6 10:24:26 2023.
