 Gaussian 16, Revision B.01,
 Gaussian 16:  ES64L-G16RevB.01 20-Dec-2017

 --------------------------------------------------------------
 #T wB97XD//def2svpp Volume=tight Geom=AllCheckpoint Guess=Read
 --------------------------------------------------------------
 Structure from the checkpoint file:  "32.chk"
 -------
 Monomer
 -------
 Charge =  0 Multiplicity = 1

                         Standard orientation:
 ---------------------------------------------------------------------
 Center     Atomic      Atomic             Coordinates (Angstroms)
 Number     Number       Type             X           Y           Z
 ---------------------------------------------------------------------
      1          8           0        1.812508   -0.994590   -1.091119
      2          6           0        0.499286   -1.301166   -0.696772
      3          6           0       -0.118596   -0.304470    0.296344
      4          6           0       -1.489500   -0.802856    0.781775
      5          8           0       -2.432995   -0.884782   -0.245083
      6          6           0        0.806132   -0.023605    1.500013
      7          8           0        2.022240    0.548322    1.155294
      8          7           0       -0.343112    1.021272   -0.409433
      9          8           0        0.337493    1.276907   -1.380136
     10          8           0       -1.186719    1.760197    0.045661
     11          1           0        1.757173   -0.190567   -1.634456
     12          1           0        0.546936   -2.276810   -0.186824
     13          1           0       -0.177088   -1.412480   -1.563654
     14          1           0       -1.838113   -0.164735    1.613329
     15          1           0       -1.352081   -1.822361    1.178468
     16          1           0       -2.789493    0.001129   -0.405416
     17          1           0        0.921493   -0.991707    2.034562
     18          1           0        0.297300    0.675178    2.184660
     19          1           0        2.431512   -0.022402    0.480266
 ---------------------------------------------------------------------

 SCF Done:  E(RwB97XD) =  -587.949069348     A.U. after    1 cycles

 The electronic state is 1-A.
 Alpha  occ. eigenvalues --  -19.31382 -19.31102 -19.28016 -19.27831 -19.25807
 Alpha  occ. eigenvalues --  -14.70017 -10.37609 -10.37376 -10.37074 -10.36999
 Alpha  occ. eigenvalues --   -1.35869  -1.18200  -1.15131  -1.14351  -1.12583
 Alpha  occ. eigenvalues --   -0.95738  -0.81116  -0.80015  -0.78546  -0.69512
 Alpha  occ. eigenvalues --   -0.66837  -0.65887  -0.64367  -0.62709  -0.61264
 Alpha  occ. eigenvalues --   -0.57908  -0.57117  -0.54905  -0.54329  -0.53108
 Alpha  occ. eigenvalues --   -0.51148  -0.46356  -0.45478  -0.44483  -0.42181
 Alpha  occ. eigenvalues --   -0.41167  -0.40709  -0.39012  -0.37539  -0.36683
 Alpha virt. eigenvalues --   -0.01139   0.11960   0.13043   0.14238   0.15560
 Alpha virt. eigenvalues --    0.18084   0.19795   0.20114   0.20858   0.21858
 Alpha virt. eigenvalues --    0.23800   0.25368   0.27659   0.30024   0.30999

 Mulliken charges:
               1
     1  O   -0.498791
     2  C    0.075555
     3  C   -0.300508
     4  C    0.066521
     5  O   -0.483551
     6  C    0.114711
     7  O   -0.484330
     8  N    0.267335
     9  O   -0.255942
    10  O   -0.247987
    11  H    0.344968
    12  H    0.120155
    13  H    0.134829
    14  H    0.129372
    15  H    0.123141
    16  H    0.334552
    17  H    0.109012
    18  H    0.124063
    19  H    0.326894
 Sum of Mulliken charges =  -0.00000

 Dipole moment (field-independent basis, Debye):
    X=             -1.0961    Y=             -2.0685    Z=              0.9129  Tot=              2.5126
 Evaluate density.
 Using the total density.
 Monte-Carlo method of calculating molar volume:
 based on  0.001 e/bohr**3 density envelope.
 Number of points per bohr**3 =  100 CutOff= 1.00D-04
 Using the SCF density.
 There are      1759 points.  Will hold      1759 in memory.
 LenV=  1048246695 MDV=  1048576000.
 Box volume = 5446.137 fraction occupied=0.200
 Integrated density= 6.1765594468701451D+01 error=-1.8234405531298549D+01

 Normal termination of Gaussian 16 at Fri Sep 23 14:42:35 2022.
