 Gaussian 16, Revision B.01,
 Gaussian 16:  ES64L-G16RevB.01 20-Dec-2017

 ----------------------------------------------------------------------
 #T wB97XD/def2svpp opt=tight freq int(grid=ultrafine) scf=(verytight,q
 c)
 ----------------------------------------------------------------------
 --------------
 Comment gs min
 --------------
 Symbolic Z-matrix:
 Charge =  0 Multiplicity = 1

 SCF Done:  E(RwB97XD) =  -1055.13830847     a.u. after    9 cycles
 SCF Done:  E(RwB97XD) =  -1055.13907957     a.u. after   19 cycles
 SCF Done:  E(RwB97XD) =  -1055.12690944     a.u. after   25 cycles
 SCF Done:  E(RwB97XD) =  -1055.13876329     a.u. after   16 cycles
 SCF Done:  E(RwB97XD) =  -1055.14186248     a.u. after    5 cycles
 SCF Done:  E(RwB97XD) =  -1055.14070970     a.u. after   15 cycles
 SCF Done:  E(RwB97XD) =  -1055.14263280     a.u. after   13 cycles
 SCF Done:  E(RwB97XD) =  -1055.14291938     a.u. after   11 cycles
 SCF Done:  E(RwB97XD) =  -1055.14206233     a.u. after   13 cycles
 SCF Done:  E(RwB97XD) =  -1055.14301285     a.u. after    9 cycles
 SCF Done:  E(RwB97XD) =  -1055.14348498     a.u. after    3 cycles
 SCF Done:  E(RwB97XD) =  -1055.14348498     a.u. after    2 cycles
 SCF Done:  E(RwB97XD) =  -1055.14348499     a.u. after    2 cycles
 SCF Done:  E(RwB97XD) =  -1055.14348499     a.u. after    2 cycles
 SCF Done:  E(RwB97XD) =  -1055.14348498     a.u. after    2 cycles
 SCF Done:  E(RwB97XD) =  -1055.14348498     a.u. after    2 cycles
 SCF Done:  E(RwB97XD) =  -1055.14348498     a.u. after    2 cycles
 SCF Done:  E(RwB97XD) =  -1055.14348498     a.u. after    2 cycles
 SCF Done:  E(RwB97XD) =  -1055.14348498     a.u. after    2 cycles
 Optimization completed.
    -- Stationary point found.
 Normal termination of Gaussian 16 at Tue Jul 11 04:07:38 2023.

 ---------------------------------------------------------------------
 #T Geom=AllCheck Guess=TCheck SCRF=Check GenChk RwB97XD/def2SVPP Freq
 ---------------------------------------------------------------------
 Structure from the checkpoint file:  "42.chk"
 --------------
 Comment gs min
 --------------
 Charge =  0 Multiplicity = 1

                         Standard orientation:
 ---------------------------------------------------------------------
 Center     Atomic      Atomic             Coordinates (Angstroms)
 Number     Number       Type             X           Y           Z
 ---------------------------------------------------------------------
      1          6           0        2.109126    1.235140   -1.187661
      2          6           0        2.445701    0.430721    0.053551
      3          6           0        2.473078    1.240742    1.333133
      4          7           0        1.475668   -0.745193    0.211826
      5          8           0        1.465053   -1.303247    1.279214
      6          8           0        0.781219   -1.029845   -0.735646
      7          7           0        3.806302   -0.235658   -0.172672
      8          8           0        4.767529    0.473650   -0.012462
      9          8           0        3.812676   -1.382986   -0.542391
     10          1           0        1.101942    1.667261   -1.080297
     11          1           0        2.133695    0.604166   -2.087584
     12          1           0        2.844570    2.048669   -1.284741
     13          1           0        1.472307    1.666172    1.502284
     14          1           0        3.203141    2.054695    1.220277
     15          1           0        2.752904    0.613575    2.191490
     16          6           0       -2.121749   -1.215652    1.213117
     17          6           0       -2.444212   -0.432468   -0.045004
     18          6           0       -2.448651   -1.260725   -1.312659
     19          7           0       -3.808169    0.235608    0.155493
     20          8           0       -3.815554    1.361814    0.586038
     21          8           0       -4.770340   -0.451377   -0.077656
     22          7           0       -1.477557    0.745156   -0.209111
     23          8           0       -0.761386    1.018961    0.725251
     24          8           0       -1.491093    1.314642   -1.270510
     25          1           0       -2.857635   -2.028459    1.315163
     26          1           0       -2.157531   -0.569599    2.101897
     27          1           0       -1.113137   -1.648780    1.125191
     28          1           0       -2.719284   -0.646776   -2.183471
     29          1           0       -3.176223   -2.076835   -1.200217
     30          1           0       -1.443053   -1.682921   -1.460320
 ---------------------------------------------------------------------

 SCF Done:  E(RwB97XD) =  -1055.14348498     a.u. after    1 cycles

 The electronic state is 1-A.
 Alpha  occ. eigenvalues --  -19.32645 -19.32617 -19.32613 -19.32553 -19.31963
 Alpha  occ. eigenvalues --  -19.31927 -19.31922 -19.31896 -14.71692 -14.71659
 Alpha  occ. eigenvalues --  -14.71240 -14.71223 -10.43757 -10.43752 -10.32999
 Alpha  occ. eigenvalues --  -10.32957 -10.32605 -10.32562  -1.38103  -1.37917
 Alpha  occ. eigenvalues --   -1.36538  -1.36432  -1.19754  -1.19652  -1.19415
 Alpha  occ. eigenvalues --   -1.19404  -1.00464  -1.00269  -0.83481  -0.83324
 Alpha  occ. eigenvalues --   -0.83255  -0.82840  -0.81734  -0.81298  -0.69783
 Alpha  occ. eigenvalues --   -0.69360  -0.68864  -0.68428  -0.67078  -0.67012
 Alpha  occ. eigenvalues --   -0.65855  -0.65123  -0.63905  -0.63738  -0.62831
 Alpha  occ. eigenvalues --   -0.62707  -0.60506  -0.60300  -0.54486  -0.54185
 Alpha  occ. eigenvalues --   -0.53461  -0.53222  -0.52771  -0.52542  -0.51438
 Alpha  occ. eigenvalues --   -0.51377  -0.48489  -0.48440  -0.43896  -0.43568
 Alpha  occ. eigenvalues --   -0.43493  -0.43389  -0.42435  -0.42340  -0.41812
 Alpha  occ. eigenvalues --   -0.41689  -0.41389  -0.41383  -0.40981  -0.40734
 Alpha virt. eigenvalues --   -0.03512  -0.01961  -0.01540  -0.01496   0.13265
 Alpha virt. eigenvalues --    0.13289   0.13331   0.15655   0.16388   0.16771
 Alpha virt. eigenvalues --    0.17672   0.18883   0.21276   0.21323   0.21399

 Mulliken charges:
               1
     1  C   -0.238584
     2  C   -0.084262
     3  C   -0.267086
     4  N    0.250954
     5  O   -0.208057
     6  O   -0.238901
     7  N    0.246400
     8  O   -0.223881
     9  O   -0.222683
    10  H    0.165953
    11  H    0.158392
    12  H    0.157418
    13  H    0.178560
    14  H    0.163187
    15  H    0.162887
    16  C   -0.235418
    17  C   -0.086236
    18  C   -0.267806
    19  N    0.245761
    20  O   -0.223424
    21  O   -0.222421
    22  N    0.250403
    23  O   -0.238610
    24  O   -0.208263
    25  H    0.156216
    26  H    0.158314
    27  H    0.166578
    28  H    0.163009
    29  H    0.162582
    30  H    0.179018
 Sum of Mulliken charges =  -0.00000

 Dipole moment (field-independent basis, Debye):
    X=              0.0130    Y=             -0.0142    Z=              0.0793  Tot=              0.0816
  Exact polarizability: 126.553  12.606 110.292   8.484   2.464 105.844
 Approx polarizability: 132.539  20.823 145.437  20.106   5.915 145.473
   1 Symmetry operations used in ECPInt.
 ECPInt:  NShTT=    8778 NPrTT=   35250 LenC2=    8066 LenP2D=   22385.
 LDataN:  DoStor=T MaxTD1= 6 Len=  172
 Calling FoFJK, ICntrl=    100127 FMM=F ISym2X=0 I1Cent= 0 IOpClX= 0 NMat=1 NMatS=1 NMatT=0.
 Full mass-weighted force constant matrix:
 Low frequencies ---   -5.3404   -0.0002    0.0005    0.0011    3.4557   10.1665
 Low frequencies ---   14.2053   22.4431   29.5929
 Diagonal vibrational polarizability:

                      1                      2                      3
                      A                      A                      A
 Frequencies --     14.0531                22.3655                29.5884
 Red. masses --      9.8875                 8.1320                 5.6068
 Frc consts  --      0.0012                 0.0024                 0.0029
 IR Inten    --      1.7990                 0.4731                 3.3953

                      4                      5                      6
                      A                      A                      A
 Frequencies --     41.2874                53.0056                59.5723
 Red. masses --      6.3667                 9.1440                 7.7773
 Frc consts  --      0.0064                 0.0151                 0.0163
 IR Inten    --      2.8913                 7.3904                 0.1201

                      7                      8                      9
                      A                      A                      A
 Frequencies --     69.4884                78.6916               103.1361
 Red. masses --     11.0571                 6.6241                14.5249
 Frc consts  --      0.0315                 0.0242                 0.0910
 IR Inten    --      0.1150                 0.0047                 1.1761

                     10                     11                     12
                      A                      A                      A
 Frequencies --    144.1267               213.5033               223.3508
 Red. masses --     11.7941                 6.3948                 9.2135
 Frc consts  --      0.1443                 0.1717                 0.2708
 IR Inten    --      0.0052                13.6046                 0.0707

                     13                     14                     15
                      A                      A                      A
 Frequencies --    241.4229               243.7107               277.8530
 Red. masses --      1.2779                 1.2378                 2.4422
 Frc consts  --      0.0439                 0.0433                 0.1111
 IR Inten    --      3.2378                 1.3307                 0.4733

                     16                     17                     18
                      A                      A                      A
 Frequencies --    280.1026               304.0939               310.3770
 Red. masses --      2.5280                 1.0945                 1.0783
 Frc consts  --      0.1169                 0.0596                 0.0612
 IR Inten    --      1.4818                 0.4148                 1.3718

                     19                     20                     21
                      A                      A                      A
 Frequencies --    329.3778               334.7176               351.1729
 Red. masses --      3.3531                 3.4335                 3.1674
 Frc consts  --      0.2143                 0.2266                 0.2301
 IR Inten    --      4.2935                 1.4525                 0.0809

                     22                     23                     24
                      A                      A                      A
 Frequencies --    352.4728               380.3331               383.0026
 Red. masses --      3.2507                 2.6823                 2.7512
 Frc consts  --      0.2379                 0.2286                 0.2378
 IR Inten    --      6.7542                 0.7829                 1.6206

                     25                     26                     27
                      A                      A                      A
 Frequencies --    433.6981               437.5708               523.1812
 Red. masses --     10.2064                10.1206                 6.3596
 Frc consts  --      1.1311                 1.1417                 1.0256
 IR Inten    --      1.1094                12.6059                 7.3358

                     28                     29                     30
                      A                      A                      A
 Frequencies --    525.8506               567.5638               569.6507
 Red. masses --      6.2848                 5.1356                 5.1132
 Frc consts  --      1.0239                 0.9747                 0.9776
 IR Inten    --      9.2092                10.7607                17.2192

                     31                     32                     33
                      A                      A                      A
 Frequencies --    708.1796               710.2502               768.0486
 Red. masses --      3.7818                 3.7151                 4.9231
 Frc consts  --      1.1175                 1.1042                 1.7111
 IR Inten    --     21.4363                20.0601                 0.8541

                     34                     35                     36
                      A                      A                      A
 Frequencies --    769.6633               783.4762               784.7550
 Red. masses --      5.2859                 6.3409                 6.5247
 Frc consts  --      1.8449                 2.2933                 2.3675
 IR Inten    --      0.5852                 4.6518                 1.3556

                     37                     38                     39
                      A                      A                      A
 Frequencies --    900.8208               902.6884               916.1055
 Red. masses --      9.2849                 9.1177                 6.1661
 Frc consts  --      4.4392                 4.3774                 3.0489
 IR Inten    --      0.0585                42.6432               129.1435

                     40                     41                     42
                      A                      A                      A
 Frequencies --    918.0681               979.0244               979.3750
 Red. masses --      5.9227                 1.3627                 1.3603
 Frc consts  --      2.9412                 0.7696                 0.7687
 IR Inten    --      0.8713                 0.7008                 1.0317

                     43                     44                     45
                      A                      A                      A
 Frequencies --    990.9062               991.0320              1040.8889
 Red. masses --      2.3652                 2.3773                 1.3213
 Frc consts  --      1.3683                 1.3757                 0.8434
 IR Inten    --      0.7281                 2.3238                 0.6131

                     46                     47                     48
                      A                      A                      A
 Frequencies --   1041.6500              1211.9526              1213.6999
 Red. masses --      1.3224                 2.2195                 2.2084
 Frc consts  --      0.8454                 1.9208                 1.9167
 IR Inten    --      0.0879                65.3107                 0.5000

                     49                     50                     51
                      A                      A                      A
 Frequencies --   1238.7698              1239.2581              1296.2645
 Red. masses --      2.3760                 2.3776                 3.4533
 Frc consts  --      2.1482                 2.1513                 3.4188
 IR Inten    --      3.5168                33.5261                 2.9247

                     52                     53                     54
                      A                      A                      A
 Frequencies --   1297.3452              1417.4112              1417.9421
 Red. masses --      3.4062                 1.3756                 1.3695
 Frc consts  --      3.3778                 1.6283                 1.6223
 IR Inten    --      6.1629                35.7232                25.6306

                     55                     56                     57
                      A                      A                      A
 Frequencies --   1426.7755              1427.1076              1473.7024
 Red. masses --      1.2992                 1.3012                 1.0501
 Frc consts  --      1.5582                 1.5614                 1.3437
 IR Inten    --      0.2515                43.8605                 2.5365

                     58                     59                     60
                      A                      A                      A
 Frequencies --   1474.8237              1476.2460              1478.2604
 Red. masses --      1.0867                 1.4150                 1.9159
 Frc consts  --      1.3926                 1.8169                 2.4668
 IR Inten    --     13.2689                 8.3787                95.0782

                     61                     62                     63
                      A                      A                      A
 Frequencies --   1480.1060              1484.0514              1499.6312
 Red. masses --      1.3039                 2.1229                 1.0851
 Frc consts  --      1.6829                 2.7547                 1.4378
 IR Inten    --     64.0911                 0.2208                 0.4676

                     64                     65                     66
                      A                      A                      A
 Frequencies --   1500.2051              1509.3527              1509.6683
 Red. masses --      1.0756                 1.3259                 1.2548
 Frc consts  --      1.4263                 1.7796                 1.6850
 IR Inten    --     27.7682               152.8864                 7.9475

                     67                     68                     69
                      A                      A                      A
 Frequencies --   1529.6807              1530.5916              1774.4282
 Red. masses --      8.0973                 8.5134                13.9759
 Frc consts  --     11.1632                11.7509                25.9267
 IR Inten    --      0.0864               116.8877                 0.6352

                     70                     71                     72
                      A                      A                      A
 Frequencies --   1782.1028              1791.2246              1791.8803
 Red. masses --     13.6766                14.1197                14.1083
 Frc consts  --     25.5914                26.6917                26.6897
 IR Inten    --    593.7980                 6.9438               452.5834

                     73                     74                     75
                      A                      A                      A
 Frequencies --   3069.9615              3070.2605              3080.4997
 Red. masses --      1.0362                 1.0361                 1.0363
 Frc consts  --      5.7536                 5.7545                 5.7938
 IR Inten    --      2.8708                 3.4277                 1.7218

                     76                     77                     78
                      A                      A                      A
 Frequencies --   3081.1206              3176.5743              3176.7937
 Red. masses --      1.0361                 1.1068                 1.1071
 Frc consts  --      5.7954                 6.5804                 6.5831
 IR Inten    --      1.4333                 0.4734                 1.8376

                     79                     80                     81
                      A                      A                      A
 Frequencies --   3187.8123              3188.3662              3189.5261
 Red. masses --      1.1073                 1.1072                 1.1069
 Frc consts  --      6.6297                 6.6314                 6.6344
 IR Inten    --      1.0074                 0.4195                 3.1740

                     82                     83                     84
                      A                      A                      A
 Frequencies --   3190.1796              3197.0442              3197.1314
 Red. masses --      1.1067                 1.1072                 1.1071
 Frc consts  --      6.6360                 6.6675                 6.6673
 IR Inten    --      2.2564                 0.1133                 0.1718

 Optimization completed.
    -- Stationary point found.
 Normal termination of Gaussian 16 at Tue Jul 11 04:17:51 2023.
