 Gaussian 16, Revision B.01,
 Gaussian 16:  ES64L-G16RevB.01 20-Dec-2017

 ----------------------------------------------------------------------
 #T wB97XD/def2svpp opt=tight freq int(grid=ultrafine) scf=(verytight,q
 c)
 ----------------------------------------------------------------------
 --------------
 Comment gs min
 --------------
 Symbolic Z-matrix:
 Charge =  0 Multiplicity = 1

 SCF Done:  E(RwB97XD) =  -1535.32696811     a.u. after    9 cycles
 SCF Done:  E(RwB97XD) =  -1535.31875340     a.u. after   39 cycles
 SCF Done:  E(RwB97XD) =  -1535.32870587     a.u. after   16 cycles
 SCF Done:  E(RwB97XD) =  -1535.31730034     a.u. after   35 cycles
 SCF Done:  E(RwB97XD) =  -1535.33185283     a.u. after   14 cycles
 SCF Done:  E(RwB97XD) =  -1535.33310642     a.u. after   13 cycles
 SCF Done:  E(RwB97XD) =  -1535.33377675     a.u. after   13 cycles
 SCF Done:  E(RwB97XD) =  -1535.33446101     a.u. after   16 cycles
 SCF Done:  E(RwB97XD) =  -1535.33407867     a.u. after   17 cycles
 SCF Done:  E(RwB97XD) =  -1535.33557728     a.u. after   12 cycles
 SCF Done:  E(RwB97XD) =  -1535.33805486     a.u. after    2 cycles
 SCF Done:  E(RwB97XD) =  -1535.33805485     a.u. after    2 cycles
 SCF Done:  E(RwB97XD) =  -1535.33805483     a.u. after    2 cycles
 SCF Done:  E(RwB97XD) =  -1535.33805480     a.u. after    2 cycles
 SCF Done:  E(RwB97XD) =  -1535.33805479     a.u. after    2 cycles
 SCF Done:  E(RwB97XD) =  -1535.33805478     a.u. after    2 cycles
 SCF Done:  E(RwB97XD) =  -1535.33805481     a.u. after    2 cycles
 SCF Done:  E(RwB97XD) =  -1535.33805478     a.u. after    2 cycles
 SCF Done:  E(RwB97XD) =  -1535.33805478     a.u. after    2 cycles
 Optimization completed.
    -- Stationary point found.
 Normal termination of Gaussian 16 at Tue Jun 27 19:55:57 2023.

 ---------------------------------------------------------------------
 #T Geom=AllCheck Guess=TCheck SCRF=Check GenChk RwB97XD/def2SVPP Freq
 ---------------------------------------------------------------------
 Structure from the checkpoint file:  "45.chk"
 --------------
 Comment gs min
 --------------
 Charge =  0 Multiplicity = 1

                         Standard orientation:
 ---------------------------------------------------------------------
 Center     Atomic      Atomic             Coordinates (Angstroms)
 Number     Number       Type             X           Y           Z
 ---------------------------------------------------------------------
      1          8           0       -2.642658   -2.289323    0.976499
      2          6           0       -1.862529   -1.150054    1.060789
      3          6           0       -2.404918   -0.037775    0.152608
      4          7           0       -3.909414    0.082614    0.333851
      5          8           0       -4.596527   -0.070549   -0.639056
      6          8           0       -4.252436    0.312742    1.461027
      7          7           0       -1.797837    1.313969    0.465947
      8          8           0       -0.633385    1.285933    0.779113
      9          8           0       -2.505145    2.275791    0.356555
     10          7           0       -2.129815   -0.316199   -1.316793
     11          8           0       -1.902097    0.624579   -2.022714
     12          8           0       -2.178401   -1.479146   -1.638267
     13          1           0       -2.532782   -2.673639    0.092442
     14          1           0       -0.800516   -1.302709    0.802702
     15          1           0       -1.915594   -0.775100    2.093537
     16          8           0        4.546746   -1.302604    0.728172
     17          6           0        4.227236   -0.280374   -0.143485
     18          6           0        2.728812    0.060023   -0.084409
     19          7           0        2.303470    0.178239    1.368681
     20          8           0        2.878153    1.021746    1.994442
     21          8           0        1.484366   -0.612518    1.761521
     22          7           0        2.441743    1.338319   -0.849853
     23          8           0        2.782511    1.271921   -2.006989
     24          8           0        1.944397    2.261126   -0.276270
     25          7           0        1.862779   -1.010021   -0.722871
     26          8           0        2.346079   -2.112248   -0.800220
     27          8           0        0.763961   -0.676600   -1.075175
     28          1           0        4.193270   -2.134836    0.377624
     29          1           0        4.476133   -0.483572   -1.200262
     30          1           0        4.766885    0.623689    0.179103
 ---------------------------------------------------------------------

 SCF Done:  E(RwB97XD) =  -1535.33805478     a.u. after    1 cycles

 The electronic state is 1-A.
 Alpha  occ. eigenvalues --  -19.37096 -19.36986 -19.35766 -19.35560 -19.35552
 Alpha  occ. eigenvalues --  -19.35272 -19.34961 -19.34831 -19.34554 -19.34408
 Alpha  occ. eigenvalues --  -19.34104 -19.33921 -19.31572 -19.29744 -14.76707
 Alpha  occ. eigenvalues --  -14.75576 -14.75497 -14.74675 -14.74401 -14.73972
 Alpha  occ. eigenvalues --  -10.50475 -10.48813 -10.42585 -10.40622  -1.43068
 Alpha  occ. eigenvalues --   -1.41351  -1.40865  -1.40323  -1.39299  -1.38859
 Alpha  occ. eigenvalues --   -1.24741  -1.23749  -1.23323  -1.22750  -1.22361
 Alpha  occ. eigenvalues --   -1.21997  -1.19025  -1.17143  -1.05199  -1.03603
 Alpha  occ. eigenvalues --   -0.87292  -0.86966  -0.85442  -0.85340  -0.85170
 Alpha  occ. eigenvalues --   -0.83918  -0.74192  -0.73332  -0.72444  -0.72243
 Alpha  occ. eigenvalues --   -0.71817  -0.71245  -0.71063  -0.70027  -0.69797
 Alpha  occ. eigenvalues --   -0.68212  -0.68055  -0.67707  -0.66797  -0.66335
 Alpha  occ. eigenvalues --   -0.66108  -0.65898  -0.65605  -0.65094  -0.64696
 Alpha  occ. eigenvalues --   -0.64213  -0.61519  -0.59722  -0.59367  -0.57493
 Alpha  occ. eigenvalues --   -0.51118  -0.49455  -0.48748  -0.48203  -0.47245
 Alpha  occ. eigenvalues --   -0.46827  -0.46541  -0.46386  -0.45939  -0.45627
 Alpha  occ. eigenvalues --   -0.45136  -0.45117  -0.44731  -0.44542  -0.44484
 Alpha  occ. eigenvalues --   -0.44132  -0.43884  -0.43787  -0.42881  -0.42820
 Alpha  occ. eigenvalues --   -0.42698  -0.41014
 Alpha virt. eigenvalues --   -0.07396  -0.05631  -0.05190  -0.05124  -0.04399
 Alpha virt. eigenvalues --   -0.03549   0.09808   0.10726   0.11223   0.13603
 Alpha virt. eigenvalues --    0.14643   0.15151   0.16199   0.16935   0.17609

 Mulliken charges:
               1
     1  O   -0.458521
     2  C    0.089423
     3  C    0.089701
     4  N    0.260397
     5  O   -0.195362
     6  O   -0.187685
     7  N    0.245526
     8  O   -0.213272
     9  O   -0.175499
    10  N    0.251849
    11  O   -0.175917
    12  O   -0.219270
    13  H    0.344076
    14  H    0.158581
    15  H    0.160988
    16  O   -0.454643
    17  C    0.101900
    18  C    0.083226
    19  N    0.271888
    20  O   -0.169020
    21  O   -0.206981
    22  N    0.240335
    23  O   -0.204423
    24  O   -0.156677
    25  N    0.249288
    26  O   -0.211350
    27  O   -0.194937
    28  H    0.345799
    29  H    0.164108
    30  H    0.166472
 Sum of Mulliken charges =  -0.00000

 Dipole moment (field-independent basis, Debye):
    X=              4.8763    Y=             -2.6613    Z=             -0.5293  Tot=              5.5804
  Exact polarizability: 136.749  -4.126 125.964   0.259   3.385 115.171
 Approx polarizability: 159.810  -7.729 181.316   3.732   9.523 160.111
   1 Symmetry operations used in ECPInt.
 ECPInt:  NShTT=   12246 NPrTT=   49158 LenC2=   10781 LenP2D=   28375.
 LDataN:  DoStor=T MaxTD1= 6 Len=  172
 Calling FoFJK, ICntrl=    100127 FMM=F ISym2X=0 I1Cent= 0 IOpClX= 0 NMat=1 NMatS=1 NMatT=0.
 Full mass-weighted force constant matrix:
 Low frequencies ---   -1.1335    0.0004    0.0008    0.0009    3.7557    8.4965
 Low frequencies ---   15.7431   20.9188   29.8186
 Diagonal vibrational polarizability:

                      1                      2                      3
                      A                      A                      A
 Frequencies --     13.9759                20.8946                29.8008
 Red. masses --     13.0481                11.3184                11.4500
 Frc consts  --      0.0015                 0.0029                 0.0060
 IR Inten    --      0.0095                 0.2578                 0.5380

                      4                      5                      6
                      A                      A                      A
 Frequencies --     41.9568                42.8001                53.1127
 Red. masses --     10.2638                13.1811                11.0045
 Frc consts  --      0.0106                 0.0142                 0.0183
 IR Inten    --      1.1797                 0.3670                 0.1307

                      7                      8                      9
                      A                      A                      A
 Frequencies --     61.7766                71.0731                88.9951
 Red. masses --     13.8658                14.9151                14.0310
 Frc consts  --      0.0312                 0.0444                 0.0655
 IR Inten    --      1.1529                 0.4508                 0.3527

                     10                     11                     12
                      A                      A                      A
 Frequencies --     98.6762               116.0841               125.3538
 Red. masses --     13.7981                14.7457                13.9074
 Frc consts  --      0.0792                 0.1171                 0.1288
 IR Inten    --      0.3646                 1.0300                 0.0901

                     13                     14                     15
                      A                      A                      A
 Frequencies --    149.5821               153.8363               174.1267
 Red. masses --      6.2346                 6.8161                 8.8684
 Frc consts  --      0.0822                 0.0950                 0.1584
 IR Inten    --      1.5890                 2.7015                 0.1414

                     16                     17                     18
                      A                      A                      A
 Frequencies --    177.5646               201.0745               207.6940
 Red. masses --      9.5246                11.2794                11.6049
 Frc consts  --      0.1769                 0.2687                 0.2949
 IR Inten    --      2.1293                 2.2526                 5.3691

                     19                     20                     21
                      A                      A                      A
 Frequencies --    224.2835               235.4227               239.9491
 Red. masses --      9.5099                 7.7007                10.7939
 Frc consts  --      0.2819                 0.2515                 0.3662
 IR Inten    --      6.1956                 8.1313                10.1847

                     22                     23                     24
                      A                      A                      A
 Frequencies --    240.6685               314.3516               315.8834
 Red. masses --     11.0275                 2.5432                 2.6150
 Frc consts  --      0.3763                 0.1481                 0.1537
 IR Inten    --     10.6889                 4.0252                 2.1373

                     25                     26                     27
                      A                      A                      A
 Frequencies --    378.1982               382.7009               392.5254
 Red. masses --      8.1798                 8.1436                14.8809
 Frc consts  --      0.6893                 0.7027                 1.3509
 IR Inten    --      1.1791                 1.3072                 0.4410

                     28                     29                     30
                      A                      A                      A
 Frequencies --    398.7225               420.8638               430.0261
 Red. masses --     14.9036                11.8634                12.6586
 Frc consts  --      1.3960                 1.2381                 1.3792
 IR Inten    --      0.9188                 1.5291                 1.7827

                     31                     32                     33
                      A                      A                      A
 Frequencies --    447.6449               449.1529               521.3632
 Red. masses --     14.1919                13.4818                 1.1623
 Frc consts  --      1.6756                 1.6025                 0.1862
 IR Inten    --      2.9923                 1.7155               184.6255

                     34                     35                     36
                      A                      A                      A
 Frequencies --    534.7906               565.6839               568.3753
 Red. masses --      1.2250                 5.1580                 5.5522
 Frc consts  --      0.2064                 0.9725                 1.0568
 IR Inten    --    111.1108                96.0877                42.9996

                     37                     38                     39
                      A                      A                      A
 Frequencies --    686.0721               689.1804               703.8727
 Red. masses --     10.8064                 9.4813                 8.2846
 Frc consts  --      2.9969                 2.6533                 2.4183
 IR Inten    --     13.2763                13.3986                16.2976

                     40                     41                     42
                      A                      A                      A
 Frequencies --    724.5503               748.8056               756.6654
 Red. masses --      9.7875                 5.9141                 7.0150
 Frc consts  --      3.0273                 1.9538                 2.3664
 IR Inten    --     13.2355                10.0198                 6.0690

                     43                     44                     45
                      A                      A                      A
 Frequencies --    828.4853               837.6961               861.5509
 Red. masses --      5.9600                 6.2022                13.9151
 Frc consts  --      2.4103                 2.5643                 6.0855
 IR Inten    --     22.7524                22.3638                38.6687

                     46                     47                     48
                      A                      A                      A
 Frequencies --    863.8269               915.1385               915.6169
 Red. masses --     14.0096                13.6073                13.3698
 Frc consts  --      6.1593                 6.7142                 6.6039
 IR Inten    --     76.8468                 9.0266                18.5951

                     49                     50                     51
                      A                      A                      A
 Frequencies --    928.8469               933.8455              1081.0442
 Red. masses --      3.0652                 2.9864                11.2339
 Frc consts  --      1.5581                 1.5345                 7.7351
 IR Inten    --     32.6775                46.0710                 3.8791

                     52                     53                     54
                      A                      A                      A
 Frequencies --   1088.3271              1101.9271              1104.7336
 Red. masses --     11.1238                 2.1045                 2.0058
 Frc consts  --      7.7628                 1.5056                 1.4423
 IR Inten    --      3.4128                38.2508                52.7735

                     55                     56                     57
                      A                      A                      A
 Frequencies --   1163.8300              1177.5984              1188.6392
 Red. masses --      8.5904                 6.8351                 6.4573
 Frc consts  --      6.8555                 5.5845                 5.3752
 IR Inten    --     12.3443                30.8431                64.3802

                     58                     59                     60
                      A                      A                      A
 Frequencies --   1192.4047              1280.8870              1284.7570
 Red. masses --      5.3864                 1.3684                 1.3064
 Frc consts  --      4.5123                 1.3228                 1.2704
 IR Inten    --     83.8892                45.6079                43.6171

                     61                     62                     63
                      A                      A                      A
 Frequencies --   1400.5119              1406.4284              1436.8147
 Red. masses --      1.3301                 1.3137                 1.2707
 Frc consts  --      1.5372                 1.5311                 1.5456
 IR Inten    --      5.5345                26.9420                74.3877

                     64                     65                     66
                      A                      A                      A
 Frequencies --   1444.9577              1454.6128              1462.9124
 Red. masses --      1.3229                12.1109                 8.4741
 Frc consts  --      1.6273                15.0981                10.6851
 IR Inten    --     60.9094               140.5240               202.1528

                     67                     68                     69
                      A                      A                      A
 Frequencies --   1464.0637              1468.6260              1488.5425
 Red. masses --     10.9629                 8.2653                 1.1726
 Frc consts  --     13.8451                10.5034                 1.5308
 IR Inten    --     39.8134               124.9791                23.7023

                     70                     71                     72
                      A                      A                      A
 Frequencies --   1496.6225              1527.5324              1528.0857
 Red. masses --      1.1249                 8.9073                 8.8059
 Frc consts  --      1.4846                12.2456                12.1149
 IR Inten    --     13.0732                31.9308                 8.2601

                     73                     74                     75
                      A                      A                      A
 Frequencies --   1794.1098              1801.3045              1808.4377
 Red. masses --     14.3099                13.9853                13.9847
 Frc consts  --     27.1385                26.7361                26.9471
 IR Inten    --    791.0523               127.6238               201.0088

                     76                     77                     78
                      A                      A                      A
 Frequencies --   1812.0177              1826.4920              1832.6965
 Red. masses --     14.2982                14.4773                14.4162
 Frc consts  --     27.6604                28.4560                28.5287
 IR Inten    --    279.3510               128.4379               326.3975

                     79                     80                     81
                      A                      A                      A
 Frequencies --   3076.7836              3100.0904              3157.3392
 Red. masses --      1.0631                 1.0613                 1.1082
 Frc consts  --      5.9297                 6.0095                 6.5088
 IR Inten    --      6.4620                 3.8327                 0.1711

                     82                     83                     84
                      A                      A                      A
 Frequencies --   3173.5631              3737.2441              3739.8114
 Red. masses --      1.1088                 1.0650                 1.0656
 Frc consts  --      6.5793                 8.7644                 8.7809
 IR Inten    --      0.2472                76.1662                87.5199

                           ! Non-Optimized Parameters !
 Normal termination of Gaussian 16 at Tue Jun 27 20:11:30 2023.
