 Gaussian 16, Revision B.01,
 Gaussian 16:  ES64L-G16RevB.01 20-Dec-2017

 ----------------------------------------------------------------------
 #T wB97XD/def2svpp opt=tight freq int(grid=ultrafine) scf=(verytight,q
 c)
 ----------------------------------------------------------------------
 --------------
 Comment gs min
 --------------
 Symbolic Z-matrix:
 Charge =  1 Multiplicity = 2

 SCF Done:  E(UwB97XD) =  -527.142755974     a.u. after   10 cycles
 SCF Done:  E(UwB97XD) =  -527.150072894     a.u. after   13 cycles
 SCF Done:  E(UwB97XD) =  -527.152093618     a.u. after   22 cycles
 SCF Done:  E(UwB97XD) =  -527.136860970     a.u. after   27 cycles
 SCF Done:  E(UwB97XD) =  -527.154483050     a.u. after   12 cycles
 SCF Done:  E(UwB97XD) =  -527.155791556     a.u. after    9 cycles
 SCF Done:  E(UwB97XD) =  -527.155970214     a.u. after    9 cycles
 SCF Done:  E(UwB97XD) =  -527.143496332     a.u. after   25 cycles
 SCF Done:  E(UwB97XD) =  -527.156214153     a.u. after   12 cycles
 SCF Done:  E(UwB97XD) =  -527.156276939     a.u. after    6 cycles
 SCF Done:  E(UwB97XD) =  -527.174297231     a.u. after    2 cycles
 SCF Done:  E(UwB97XD) =  -527.174297232     a.u. after    2 cycles
 SCF Done:  E(UwB97XD) =  -527.174297231     a.u. after    2 cycles
 SCF Done:  E(UwB97XD) =  -527.174297232     a.u. after    2 cycles
 SCF Done:  E(UwB97XD) =  -527.174297232     a.u. after    2 cycles
 SCF Done:  E(UwB97XD) =  -527.174297232     a.u. after    2 cycles
 SCF Done:  E(UwB97XD) =  -527.174297232     a.u. after    2 cycles
 SCF Done:  E(UwB97XD) =  -527.174297232     a.u. after    2 cycles
 SCF Done:  E(UwB97XD) =  -527.174297232     a.u. after    2 cycles
 Optimization completed.
    -- Stationary point found.
 Normal termination of Gaussian 16 at Tue Jul 11 00:20:38 2023.

 ---------------------------------------------------------------------
 #T Geom=AllCheck Guess=TCheck SCRF=Check GenChk UwB97XD/def2SVPP Freq
 ---------------------------------------------------------------------
 Structure from the checkpoint file:  "42.chk"
 --------------
 Comment gs min
 --------------
 Charge =  1 Multiplicity = 2

                         Standard orientation:
 ---------------------------------------------------------------------
 Center     Atomic      Atomic             Coordinates (Angstroms)
 Number     Number       Type             X           Y           Z
 ---------------------------------------------------------------------
      1          6           0       -0.577651    1.285475   -1.306545
      2          6           0       -0.657104    0.639909    0.000032
      3          6           0       -0.577653    1.285371    1.306660
      4          7           0       -1.223068   -0.720175   -0.000020
      5          8           0       -2.426097   -0.662626   -0.000070
      6          8           0       -0.496728   -1.668858   -0.000004
      7          7           0        1.752052   -0.098450   -0.000015
      8          8           0        2.139597   -0.226086   -1.099737
      9          8           0        2.139645   -0.226177    1.099680
     10          1           0       -1.624310    1.577585   -1.561052
     11          1           0       -0.247454    0.589739   -2.097752
     12          1           0        0.031879    2.200815   -1.277256
     13          1           0       -1.624335    1.577289    1.561287
     14          1           0        0.031753    2.200795    1.277419
     15          1           0       -0.247299    0.589598    2.097773
 ---------------------------------------------------------------------

 SCF Done:  E(UwB97XD) =  -527.174297232     a.u. after    1 cycles

 The electronic state is 2-A.
 Alpha  occ. eigenvalues --  -19.56363 -19.56361 -19.52124 -19.51961 -14.91294
 Alpha  occ. eigenvalues --  -14.89568 -10.68465 -10.53500 -10.53498  -1.59092
 Alpha  occ. eigenvalues --   -1.57396  -1.44806  -1.40212  -1.19890  -1.05565
 Alpha  occ. eigenvalues --   -1.03771  -0.94627  -0.88749  -0.87931  -0.86924
 Alpha  occ. eigenvalues --   -0.86416  -0.85012  -0.83473  -0.82207  -0.76547
 Alpha  occ. eigenvalues --   -0.75274  -0.73821  -0.71844  -0.70336  -0.66345
 Alpha  occ. eigenvalues --   -0.65397  -0.62369  -0.61924  -0.60912  -0.54140
 Alpha virt. eigenvalues --   -0.28401  -0.20589  -0.18992  -0.04590  -0.03150
 Alpha virt. eigenvalues --    0.00517   0.00790   0.02913   0.03030   0.04101
 Alpha virt. eigenvalues --    0.07828   0.12041   0.13613   0.15272   0.24781

  Beta  occ. eigenvalues --  -19.55621 -19.55620 -19.52072 -19.51901 -14.91299
  Beta  occ. eigenvalues --  -14.88934 -10.68358 -10.53501 -10.53498  -1.57547
  Beta  occ. eigenvalues --   -1.57242  -1.42874  -1.40100  -1.19541  -1.05480
  Beta  occ. eigenvalues --   -1.03674  -0.91159  -0.87995  -0.86898  -0.85875
  Beta  occ. eigenvalues --   -0.85241  -0.83159  -0.82826  -0.81973  -0.75838
  Beta  occ. eigenvalues --   -0.75176  -0.73744  -0.71413  -0.70247  -0.64566
  Beta  occ. eigenvalues --   -0.62196  -0.61758  -0.61668  -0.60538
  Beta virt. eigenvalues --   -0.30417  -0.22342  -0.20552  -0.17642  -0.04515
  Beta virt. eigenvalues --   -0.03023   0.00597   0.00914   0.03103   0.03241
  Beta virt. eigenvalues --    0.04128   0.07948   0.13041   0.13677   0.15358

 Mulliken charges and spin densities:
               1          2
     1  C   -0.273568  -0.011379
     2  C   -0.068188   0.134274
     3  C   -0.273570  -0.011379
     4  N    0.263432  -0.011725
     5  O   -0.135007   0.020085
     6  O   -0.138654   0.018636
     7  N    0.286433   0.318487
     8  O   -0.052042   0.253611
     9  O   -0.052041   0.253606
    10  H    0.268933   0.014485
    11  H    0.233432   0.003160
    12  H    0.219238   0.000246
    13  H    0.268930   0.014485
    14  H    0.219236   0.000245
    15  H    0.233436   0.003162
 Sum of Mulliken charges =   1.00000   1.00000

 Dipole moment (field-independent basis, Debye):
    X=             -1.0264    Y=              5.4307    Z=              0.0003  Tot=              5.5269
  Exact polarizability:  93.557 -10.166  57.384  -0.000  -0.001  62.563
 Approx polarizability:  96.645 -12.764  64.103   0.001  -0.002  84.467
                          Isotropic Fermi Contact Couplings
        Atom                 a.u.       MegaHertz       Gauss      10(-4) cm-1
     1  C(13)             -0.00260      -2.92137      -1.04242      -0.97447
     2  C(13)              0.02005      22.54244       8.04370       7.51935
     3  C(13)             -0.00260      -2.92246      -1.04281      -0.97483
     4  N(14)             -0.00313      -1.01074      -0.36066      -0.33715
     5  O(17)              0.00633      -3.83474      -1.36833      -1.27913
     6  O(17)              0.01265      -7.67003      -2.73686      -2.55845

                      1                      2                      3
                      A                      A                      A
 Frequencies --     37.6715                62.0385                71.8144
 Red. masses --      9.5855                12.3354                11.0792
 Frc consts  --      0.0080                 0.0280                 0.0337
 IR Inten    --      1.8232                 0.0007                12.4444

                      4                      5                      6
                      A                      A                      A
 Frequencies --    120.4885               148.0045               173.9374
 Red. masses --      5.1391                 3.2045                 3.6072
 Frc consts  --      0.0440                 0.0414                 0.0643
 IR Inten    --     26.3668                 0.8467                 0.5075

                      7                      8                      9
                      A                      A                      A
 Frequencies --    187.3618               219.2047               224.1609
 Red. masses --      1.2935                 1.2024                 4.5377
 Frc consts  --      0.0268                 0.0340                 0.1343
 IR Inten    --      0.1751                15.3743                 5.8670

                     10                     11                     12
                      A                      A                      A
 Frequencies --    285.7511               341.9484               382.8225
 Red. masses --      3.7499                 3.0851                10.2156
 Frc consts  --      0.1804                 0.2125                 0.8821
 IR Inten    --     12.9598                 4.8482                 4.3301

                     13                     14                     15
                      A                      A                      A
 Frequencies --    460.0902               600.6722               755.5443
 Red. masses --      2.1959                 4.0048                12.1056
 Frc consts  --      0.2739                 0.8514                 4.0715
 IR Inten    --     54.2606                37.2740               158.8809

                     16                     17                     18
                      A                      A                      A
 Frequencies --    757.8889               808.5147               869.4394
 Red. masses --      3.9845                 1.3930                 4.4612
 Frc consts  --      1.3485                 0.5365                 1.9869
 IR Inten    --     10.5215                 2.7644                33.2381

                     19                     20                     21
                      A                      A                      A
 Frequencies --    946.1869              1010.3831              1058.5350
 Red. masses --      2.7188                 1.3788                 1.8353
 Frc consts  --      1.4341                 0.8293                 1.2116
 IR Inten    --     51.9554                 0.7813               158.4000

                     22                     23                     24
                      A                      A                      A
 Frequencies --   1253.3016              1319.5300              1339.3235
 Red. masses --      2.2716                 2.0481                 1.1652
 Frc consts  --      2.1023                 2.1011                 1.2315
 IR Inten    --     56.5796                48.1032               162.5546

                     25                     26                     27
                      A                      A                      A
 Frequencies --   1357.5213              1397.5203              1421.0370
 Red. masses --      1.2222                 1.0836                 1.2174
 Frc consts  --      1.3270                 1.2469                 1.4484
 IR Inten    --     27.2350                 0.3611                22.1238

                     28                     29                     30
                      A                      A                      A
 Frequencies --   1426.4691              1481.1273              1485.3816
 Red. masses --      7.3397                 1.2143                 1.5419
 Frc consts  --      8.7994                 1.5695                 2.0044
 IR Inten    --    210.1547                18.6511                28.5158

                     31                     32                     33
                      A                      A                      A
 Frequencies --   1509.9374              1796.0100              1953.8519
 Red. masses --      5.9694                14.6268                14.5219
 Frc consts  --      8.0186                27.7982                32.6631
 IR Inten    --     60.9156               203.5964               276.8933

                     34                     35                     36
                      A                      A                      A
 Frequencies --   2966.7933              2977.8900              3100.8790
 Red. masses --      1.0518                 1.0540                 1.0796
 Frc consts  --      5.4546                 5.5071                 6.1164
 IR Inten    --    114.6177               113.0117                 6.0615

                     37                     38                     39
                      A                      A                      A
 Frequencies --   3103.1880              3184.3973              3188.6303
 Red. masses --      1.0824                 1.1093                 1.1094
 Frc consts  --      6.1411                 6.6273                 6.6458
 IR Inten    --     42.8274                 7.4412                18.8942

                           ! Non-Optimized Parameters !
 Normal termination of Gaussian 16 at Tue Jul 11 00:22:37 2023.
