 Gaussian 16, Revision B.01,
 Gaussian 16:  ES64L-G16RevB.01 20-Dec-2017

 ----------------------------------------------------------------------
 #T wB97XD/def2svpp opt=tight freq int(grid=ultrafine) scf=(verytight,q
 c) Volume=tight
 ----------------------------------------------------------------------
 -------
 Monomer
 -------
 Symbolic Z-matrix:
 Charge =  0 Multiplicity = 1

 SCF Done:  E(RwB97XD) =  -362.657665437     a.u. after    8 cycles
 SCF Done:  E(RwB97XD) =  -362.659103277     a.u. after    5 cycles
 SCF Done:  E(RwB97XD) =  -362.659125654     a.u. after    3 cycles
 SCF Done:  E(RwB97XD) =  -362.659068370     a.u. after    5 cycles
 SCF Done:  E(RwB97XD) =  -362.659134943     a.u. after    4 cycles
 SCF Done:  E(RwB97XD) =  -362.659135675     a.u. after    2 cycles
 SCF Done:  E(RwB97XD) =  -362.659135690     a.u. after    2 cycles
 SCF Done:  E(RwB97XD) =  -362.659135690     a.u. after    2 cycles
 SCF Done:  E(RwB97XD) =  -362.659135690     a.u. after    2 cycles
 SCF Done:  E(RwB97XD) =  -362.659135691     a.u. after    2 cycles
 SCF Done:  E(RwB97XD) =  -362.659135691     a.u. after    2 cycles
 SCF Done:  E(RwB97XD) =  -362.659135691     a.u. after    2 cycles
 SCF Done:  E(RwB97XD) =  -362.659135691     a.u. after    2 cycles
 Optimization completed.
    -- Stationary point found.
 Normal termination of Gaussian 16 at Fri Mar 29 15:38:39 2024.

 ---------------------------------------------------------------------
 #T Geom=AllCheck Guess=TCheck SCRF=Check GenChk RwB97XD/def2SVPP Freq
 ---------------------------------------------------------------------
 Structure from the checkpoint file:  "monomer.chk"
 -------
 Monomer
 -------
 Charge =  0 Multiplicity = 1

                         Standard orientation:
 ---------------------------------------------------------------------
 Center     Atomic      Atomic             Coordinates (Angstroms)
 Number     Number       Type             X           Y           Z
 ---------------------------------------------------------------------
      1          6           0       -1.033714   -0.726923    1.260711
      2          6           0       -0.590368    0.028172    0.000000
      3          6           0       -1.033716   -0.726915   -1.260715
      4          7           0       -1.205850    1.342852    0.000005
      5          6           0        0.942406    0.137622   -0.000000
      6          8           0        1.556390   -1.056565   -0.000001
      7          8           0        1.557958    1.171311   -0.000000
      8          1           0       -0.709203   -0.194588    2.172763
      9          1           0       -0.613286   -1.744530    1.286941
     10          1           0       -2.134369   -0.785704    1.272054
     11          1           0       -0.709203   -0.194576   -2.172764
     12          1           0       -2.134371   -0.785693   -1.272059
     13          1           0       -0.613290   -1.744523   -1.286950
     14          1           0       -0.891470    1.873831   -0.813226
     15          1           0       -0.891467    1.873826    0.813237
     16          1           0        2.515182   -0.887724   -0.000001
 ---------------------------------------------------------------------

 SCF Done:  E(RwB97XD) =  -362.659135691     a.u. after    1 cycles

 The electronic state is 1-A.
 Alpha  occ. eigenvalues --  -19.30762 -19.25003 -14.41597 -10.42717 -10.34701
 Alpha  occ. eigenvalues --  -10.29015 -10.29014  -1.20876  -1.11150  -0.99222
 Alpha  occ. eigenvalues --   -0.85919  -0.78711  -0.75094  -0.66418  -0.59865
 Alpha  occ. eigenvalues --   -0.58089  -0.57536  -0.54396  -0.53458  -0.50983
 Alpha  occ. eigenvalues --   -0.47328  -0.46866  -0.46720  -0.44832  -0.42921
 Alpha  occ. eigenvalues --   -0.41234  -0.36380  -0.32805
 Alpha virt. eigenvalues --    0.08501   0.12555   0.14954   0.18359   0.18827
 Alpha virt. eigenvalues --    0.19890   0.20911   0.21245   0.25454   0.25728
 Alpha virt. eigenvalues --    0.26908   0.30547   0.32122   0.33112   0.40031

 Mulliken charges:
               1
     1  C   -0.267027
     2  C   -0.170557
     3  C   -0.267027
     4  N   -0.462071
     5  C    0.208792
     6  O   -0.372088
     7  O   -0.230052
     8  H    0.116050
     9  H    0.134374
    10  H    0.137119
    11  H    0.116050
    12  H    0.137119
    13  H    0.134374
    14  H    0.223403
    15  H    0.223403
    16  H    0.338140
 Sum of Mulliken charges =   0.00000

 Dipole moment (field-independent basis, Debye):
    X=              0.6974    Y=             -1.2254    Z=             -0.0000  Tot=              1.4100
  Exact polarizability:  54.212   0.736  55.263   0.000  -0.000  48.859
 Approx polarizability:  55.610   1.659  63.609   0.000   0.000  50.529
   1 Symmetry operations used in ECPInt.
 ECPInt:  NShTT=    1830 NPrTT=    7378 LenC2=    1824 LenP2D=    6001.
 LDataN:  DoStor=T MaxTD1= 6 Len=  172
 Calling FoFJK, ICntrl=    100127 FMM=F ISym2X=0 I1Cent= 0 IOpClX= 0 NMat=1 NMatS=1 NMatT=0.
 Full mass-weighted force constant matrix:
 Low frequencies ---   -0.2405    0.0006    0.0014    0.0014    7.7501   10.2035
 Low frequencies ---   43.4859  212.9602  238.5836
 Diagonal vibrational polarizability:

                      1                      2                      3
                      A                      A                      A
 Frequencies --     43.4751               212.9598               238.5821
 Red. masses --      5.9129                 1.3461                 1.4247
 Frc consts  --      0.0066                 0.0360                 0.0478
 IR Inten    --      2.4288                 2.3557                23.1731

                      4                      5                      6
                      A                      A                      A
 Frequencies --    262.7203               283.3272               299.1028
 Red. masses --      2.6141                 1.1705                 1.2292
 Frc consts  --      0.1063                 0.0554                 0.0648
 IR Inten    --      1.6542                 0.0577                21.8856

                      7                      8                      9
                      A                      A                      A
 Frequencies --    354.4300               382.3041               426.3107
 Red. masses --      2.7192                 3.4366                 2.5875
 Frc consts  --      0.2013                 0.2959                 0.2771
 IR Inten    --      1.4880                20.8464                 2.6311

                     10                     11                     12
                      A                      A                      A
 Frequencies --    526.8665               607.1094               632.6686
 Red. masses --      3.8319                 3.5428                 1.2044
 Frc consts  --      0.6267                 0.7694                 0.2840
 IR Inten    --     13.8363                 7.9803               104.6284

                     13                     14                     15
                      A                      A                      A
 Frequencies --    752.9604               809.9384               898.0296
 Red. masses --      3.4554                 4.6066                 1.8902
 Frc consts  --      1.1542                 1.7805                 0.8981
 IR Inten    --     28.8426                28.7152                52.4878

                     16                     17                     18
                      A                      A                      A
 Frequencies --    924.9888               968.4865              1025.7945
 Red. masses --      1.6653                 1.4500                 1.2767
 Frc consts  --      0.8395                 0.8013                 0.7915
 IR Inten    --    121.3633                 1.1457                 1.2000

                     19                     20                     21
                      A                      A                      A
 Frequencies --   1045.1518              1102.9130              1193.7655
 Red. masses --      1.5019                 1.6981                 3.2491
 Frc consts  --      0.9666                 1.2170                 2.7280
 IR Inten    --      9.5764                 0.6513               262.0724

                     22                     23                     24
                      A                      A                      A
 Frequencies --   1247.2289              1314.4107              1361.6950
 Red. masses --      1.8137                 3.1464                 1.5734
 Frc consts  --      1.6623                 3.2028                 1.7189
 IR Inten    --     38.3888                 4.3450                 0.0310

                     25                     26                     27
                      A                      A                      A
 Frequencies --   1388.4684              1408.5014              1431.4345
 Red. masses --      2.2284                 1.4394                 1.4624
 Frc consts  --      2.5312                 1.6825                 1.7654
 IR Inten    --     23.5104                 9.5215                12.9074

                     28                     29                     30
                      A                      A                      A
 Frequencies --   1480.6733              1481.3130              1496.8320
 Red. masses --      1.0587                 1.0429                 1.0766
 Frc consts  --      1.3675                 1.3483                 1.4212
 IR Inten    --      3.7565                 0.1024                 8.0055

                     31                     32                     33
                      A                      A                      A
 Frequencies --   1505.8950              1681.3401              1895.2176
 Red. masses --      1.0758                 1.1014                10.6641
 Frc consts  --      1.4374                 1.8344                22.5680
 IR Inten    --     22.4228                26.7220               303.2872

                     34                     35                     36
                      A                      A                      A
 Frequencies --   3038.4198              3040.5451              3130.9592
 Red. masses --      1.0382                 1.0392                 1.1031
 Frc consts  --      5.6471                 5.6603                 6.3712
 IR Inten    --     30.1974                 2.5586                 9.1442

                     37                     38                     39
                      A                      A                      A
 Frequencies --   3132.4642              3159.1063              3161.9265
 Red. masses --      1.1022                 1.1067                 1.1057
 Frc consts  --      6.3720                 6.5072                 6.5133
 IR Inten    --     19.7399                 0.0966                14.6347

                     40                     41                     42
                      A                      A                      A
 Frequencies --   3490.4391              3568.0639              3694.4460
 Red. masses --      1.0520                 1.0918                 1.0641
 Frc consts  --      7.5516                 8.1894                 8.5572
 IR Inten    --      1.3100                 2.8983                75.8887

 Optimization completed.
    -- Stationary point found.
 Normal termination of Gaussian 16 at Fri Mar 29 15:39:48 2024.
