 Gaussian 16, Revision B.01,
 Gaussian 16:  ES64L-G16RevB.01 20-Dec-2017

 --------------------------------------------------------------
 #T wB97XD//def2svpp Volume=tight Geom=AllCheckpoint Guess=Read
 --------------------------------------------------------------
 Structure from the checkpoint file:  "10.chk"
 -----
 Dimer
 -----
 Charge =  0 Multiplicity = 1

                         Standard orientation:
 ---------------------------------------------------------------------
 Center     Atomic      Atomic             Coordinates (Angstroms)
 Number     Number       Type             X           Y           Z
 ---------------------------------------------------------------------
      1          6           0        1.781406    1.038756   -0.019436
      2          6           0        0.848844   -0.086972   -0.462274
      3          8           0        1.395494   -1.341556   -0.106279
      4          6           0       -0.630738    0.046955    0.002025
      5          6           0       -1.202195    1.401689   -0.438533
      6          6           0       -1.437396   -1.079179   -0.661182
      7          6           0       -0.746142   -0.086077    1.527535
      8          1           0        1.829340    1.118562    1.082256
      9          1           0        1.470321    2.018384   -0.416368
     10          1           0        2.798733    0.827579   -0.388377
     11          1           0        0.834363   -0.099389   -1.566619
     12          1           0        1.596319   -1.330296    0.839517
     13          1           0       -0.752581    2.243517    0.115981
     14          1           0       -2.291932    1.434640   -0.261453
     15          1           0       -1.034388    1.574333   -1.517618
     16          1           0       -1.436063   -0.969921   -1.760853
     17          1           0       -2.488404   -1.063519   -0.321142
     18          1           0       -1.003321   -2.062902   -0.419961
     19          1           0       -0.182184    0.701130    2.058896
     20          1           0       -0.385489   -1.070421    1.875713
     21          1           0       -1.801347   -0.000284    1.841453
 ---------------------------------------------------------------------

 SCF Done:  E(RwB97XD) =  -311.946939913     A.U. after    1 cycles

 The electronic state is 1-A.
 Alpha  occ. eigenvalues --  -19.24454 -10.33849 -10.30438 -10.28391 -10.28361
 Alpha  occ. eigenvalues --  -10.28203 -10.27238  -1.10981  -0.91128  -0.82547
 Alpha  occ. eigenvalues --   -0.77619  -0.76948  -0.71722  -0.63565  -0.57129
 Alpha  occ. eigenvalues --   -0.55418  -0.54112  -0.52349  -0.51398  -0.47971
 Alpha  occ. eigenvalues --   -0.46660  -0.46280  -0.45243  -0.44360  -0.43152
 Alpha  occ. eigenvalues --   -0.41198  -0.40643  -0.38653  -0.34545
 Alpha virt. eigenvalues --    0.12283   0.15404   0.16815   0.17618   0.18940
 Alpha virt. eigenvalues --    0.19163   0.20497   0.21191   0.22141   0.23764
 Alpha virt. eigenvalues --    0.24879   0.25392   0.26018   0.27946   0.28427

 Mulliken charges:
               1
     1  C   -0.321643
     2  C    0.092400
     3  O   -0.486492
     4  C   -0.235096
     5  C   -0.285116
     6  C   -0.258696
     7  C   -0.313669
     8  H    0.107460
     9  H    0.125392
    10  H    0.133383
    11  H    0.083946
    12  H    0.314174
    13  H    0.119561
    14  H    0.115846
    15  H    0.115428
    16  H    0.107393
    17  H    0.109414
    18  H    0.128583
    19  H    0.118753
    20  H    0.108943
    21  H    0.120037
 Sum of Mulliken charges =   0.00000

 Dipole moment (field-independent basis, Debye):
    X=             -0.1684    Y=              1.1928    Z=              1.0531  Tot=              1.6001
 Evaluate density.
 Using the total density.
 Monte-Carlo method of calculating molar volume:
 based on  0.001 e/bohr**3 density envelope.
 Number of points per bohr**3 =  100 CutOff= 1.00D-04
 Using the SCF density.
 There are      1797 points.  Will hold      1797 in memory.
 LenV=  1048312899 MDV=  1048576000.
 Box volume = 5808.774 fraction occupied=0.201
 Integrated density= 4.5873087090209793D+01 error=-1.2126912909790207D+01

 Normal termination of Gaussian 16 at Fri Feb  3 13:01:38 2023.
