 Gaussian 16, Revision B.01,
 Gaussian 16:  ES64L-G16RevB.01 20-Dec-2017

 ----------------------------------------------------------------------
 #T wB97XD/def2svpp opt=tight freq int(grid=ultrafine) scf=(verytight,q
 c)
 ----------------------------------------------------------------------
 --------------
 Comment gs min
 --------------
 Symbolic Z-matrix:
 Charge =  0 Multiplicity = 1

 SCF Done:  E(RwB97XD) =  -1116.45659246     a.u. after    7 cycles
 SCF Done:  E(RwB97XD) =  -1116.45798120     a.u. after    6 cycles
 SCF Done:  E(RwB97XD) =  -1116.45812077     a.u. after    4 cycles
 SCF Done:  E(RwB97XD) =  -1116.45812264     a.u. after    5 cycles
 SCF Done:  E(RwB97XD) =  -1116.45814882     a.u. after    4 cycles
 SCF Done:  E(RwB97XD) =  -1116.45814936     a.u. after    2 cycles
 SCF Done:  E(RwB97XD) =  -1116.45814941     a.u. after    2 cycles
 SCF Done:  E(RwB97XD) =  -1116.45814942     a.u. after    2 cycles
 SCF Done:  E(RwB97XD) =  -1116.45814942     a.u. after    2 cycles
 SCF Done:  E(RwB97XD) =  -1116.45814942     a.u. after    2 cycles
 Optimization completed.
    -- Stationary point found.
 Normal termination of Gaussian 16 at Mon Jun 26 17:29:13 2023.

 ---------------------------------------------------------------------
 #T Geom=AllCheck Guess=TCheck SCRF=Check GenChk RwB97XD/def2SVPP Freq
 ---------------------------------------------------------------------
 Structure from the checkpoint file:  "44.chk"
 --------------
 Comment gs min
 --------------
 Charge =  0 Multiplicity = 1

                         Standard orientation:
 ---------------------------------------------------------------------
 Center     Atomic      Atomic             Coordinates (Angstroms)
 Number     Number       Type             X           Y           Z
 ---------------------------------------------------------------------
      1          6           0       -0.855333    1.740818    0.918066
      2          6           0        0.000000    0.854187   -0.000000
      3          6           0        0.855336    1.740813   -0.918067
      4          6           0        0.887664   -0.010915    0.904523
      5         17           0        1.997724   -1.107929    0.009102
      6          6           0       -0.887666   -0.010914   -0.904522
      7         17           0       -1.997725   -1.107928   -0.009101
      8          1           0       -0.215638    2.396815    1.533904
      9          1           0       -1.485962    1.136744    1.590890
     10          1           0       -1.520754    2.385734    0.317775
     11          1           0        1.520766    2.385721   -0.317777
     12          1           0        0.215644    2.396818   -1.533900
     13          1           0        1.485957    1.136735   -1.590897
     14          1           0        0.272824   -0.654389    1.550163
     15          1           0        1.524087    0.627917    1.535380
     16          1           0       -0.272827   -0.654387   -1.550165
     17          1           0       -1.524090    0.627920   -1.535378
 ---------------------------------------------------------------------

 SCF Done:  E(RwB97XD) =  -1116.45814942     a.u. after    1 cycles

 The electronic state is 1-A.
 Alpha  occ. eigenvalues -- -101.66225-101.66223 -10.35170 -10.35166 -10.33628
 Alpha  occ. eigenvalues --  -10.29731 -10.29729  -9.56990  -9.56989  -7.32365
 Alpha  occ. eigenvalues --   -7.32365  -7.31414  -7.31414  -7.31382  -7.31381
 Alpha  occ. eigenvalues --   -0.97956  -0.93955  -0.89559  -0.79467  -0.76575
 Alpha  occ. eigenvalues --   -0.76248  -0.64062  -0.57745  -0.57658  -0.54294
 Alpha  occ. eigenvalues --   -0.52567  -0.50560  -0.49154  -0.47108  -0.46685
 Alpha  occ. eigenvalues --   -0.45431  -0.43789  -0.42793  -0.38251  -0.37690
 Alpha  occ. eigenvalues --   -0.37098  -0.36910
 Alpha virt. eigenvalues --    0.10698   0.12205   0.13875   0.16110   0.18057
 Alpha virt. eigenvalues --    0.18126   0.19367   0.19512   0.21639   0.23616
 Alpha virt. eigenvalues --    0.24647   0.25794   0.26323   0.28500   0.28686

 Mulliken charges:
               1
     1  C   -0.277850
     2  C   -0.271321
     3  C   -0.277850
     4  C   -0.124965
     5  Cl  -0.158712
     6  C   -0.124965
     7  Cl  -0.158712
     8  H    0.122107
     9  H    0.135918
    10  H    0.124822
    11  H    0.124822
    12  H    0.122107
    13  H    0.135918
    14  H    0.163115
    15  H    0.151226
    16  H    0.163115
    17  H    0.151226
 Sum of Mulliken charges =  -0.00000

 Dipole moment (field-independent basis, Debye):
    X=             -0.0000    Y=              2.4343    Z=             -0.0000  Tot=              2.4343
  Exact polarizability:  73.314  -0.000  72.214  -3.970   0.000  63.706
 Approx polarizability:  78.992  -0.000  78.494  -5.773   0.000  73.312
   1 Symmetry operations used in ECPInt.
 ECPInt:  NShTT=    2211 NPrTT=    9457 LenC2=    2187 LenP2D=    7371.
 LDataN:  DoStor=T MaxTD1= 6 Len=  172
 Calling FoFJK, ICntrl=    100127 FMM=F ISym2X=0 I1Cent= 0 IOpClX= 0 NMat=1 NMatS=1 NMatT=0.
 Full mass-weighted force constant matrix:
 Low frequencies ---   -0.0022   -0.0005    0.0012   11.9740   13.3503   17.0793
 Low frequencies ---   69.5208  171.9956  201.3154
 Diagonal vibrational polarizability:

                      1                      2                      3
                      A                      A                      A
 Frequencies --     69.5205               171.9889               201.3057
 Red. masses --      9.8505                 2.7005                 3.6357
 Frc consts  --      0.0281                 0.0471                 0.0868
 IR Inten    --      1.0127                 1.2538                 1.3116

                      4                      5                      6
                      A                      A                      A
 Frequencies --    242.6475               242.8137               289.1506
 Red. masses --      4.6370                 1.0560                 1.0471
 Frc consts  --      0.1609                 0.0367                 0.0516
 IR Inten    --      6.0271                 0.0774                 0.1828

                      7                      8                      9
                      A                      A                      A
 Frequencies --    326.8635               351.8120               376.1116
 Red. masses --      3.3322                 2.0741                 3.1759
 Frc consts  --      0.2098                 0.1512                 0.2647
 IR Inten    --      2.3244                 0.0178                 1.4971

                     10                     11                     12
                      A                      A                      A
 Frequencies --    480.7683               481.7821               743.6627
 Red. masses --      2.5202                 2.4780                 4.4630
 Frc consts  --      0.3432                 0.3389                 1.4542
 IR Inten    --      1.1213                 0.8932                 6.0383

                     13                     14                     15
                      A                      A                      A
 Frequencies --    782.0955               811.5375               882.5231
 Red. masses --      5.2760                 4.2705                 1.5918
 Frc consts  --      1.9014                 1.6571                 0.7305
 IR Inten    --     37.3883                17.7442                 6.3252

                     16                     17                     18
                      A                      A                      A
 Frequencies --    913.5988               953.1487               975.3382
 Red. masses --      1.9118                 1.6761                 1.3696
 Frc consts  --      0.9402                 0.8971                 0.7676
 IR Inten    --     11.2043                11.4786                 0.5466

                     19                     20                     21
                      A                      A                      A
 Frequencies --   1011.3873              1047.9717              1151.4732
 Red. masses --      1.5138                 1.3454                 1.3748
 Frc consts  --      0.9123                 0.8706                 1.0740
 IR Inten    --      3.1681                 0.0000                 0.9042

                     22                     23                     24
                      A                      A                      A
 Frequencies --   1183.9132              1240.2806              1290.1500
 Red. masses --      1.2703                 1.8096                 1.3490
 Frc consts  --      1.0490                 1.6401                 1.3230
 IR Inten    --      2.4252                 3.9472                 6.4221

                     25                     26                     27
                      A                      A                      A
 Frequencies --   1318.1769              1350.1791              1354.5886
 Red. masses --      2.1230                 1.5007                 1.5311
 Frc consts  --      2.1734                 1.6119                 1.6552
 IR Inten    --      8.9488                14.3742                 5.1417

                     28                     29                     30
                      A                      A                      A
 Frequencies --   1412.3926              1429.9787              1471.3776
 Red. masses --      1.2809                 1.2257                 1.0733
 Frc consts  --      1.5055                 1.4767                 1.3690
 IR Inten    --      7.8340                13.8931                11.7905

                     31                     32                     33
                      A                      A                      A
 Frequencies --   1476.5323              1486.7552              1490.5580
 Red. masses --      1.0931                 1.0437                 1.0694
 Frc consts  --      1.4041                 1.3593                 1.3998
 IR Inten    --      1.4412                 0.2143                15.1469

                     34                     35                     36
                      A                      A                      A
 Frequencies --   1501.1579              1512.4945              3034.5315
 Red. masses --      1.0702                 1.0666                 1.0376
 Frc consts  --      1.4210                 1.4376                 5.6293
 IR Inten    --      6.2236                23.2985                12.4156

                     37                     38                     39
                      A                      A                      A
 Frequencies --   3037.4230              3096.0043              3097.4533
 Red. masses --      1.0380                 1.0604                 1.0608
 Frc consts  --      5.6425                 5.9888                 5.9962
 IR Inten    --     20.1910                16.7252                 5.2863

                     40                     41                     42
                      A                      A                      A
 Frequencies --   3123.7662              3126.9705              3143.5852
 Red. masses --      1.1053                 1.1041                 1.1044
 Frc consts  --      6.3545                 6.3608                 6.4302
 IR Inten    --      0.0315                32.2392                11.0060

                     43                     44                     45
                      A                      A                      A
 Frequencies --   3144.1048              3171.3333              3171.7413
 Red. masses --      1.1046                 1.1104                 1.1114
 Frc consts  --      6.4333                 6.5798                 6.5875
 IR Inten    --      5.7282                 3.0183                 3.0721

 Optimization completed.
    -- Stationary point found.
 Normal termination of Gaussian 16 at Mon Jun 26 17:31:04 2023.
