 Gaussian 16, Revision B.01,
 Gaussian 16:  ES64L-G16RevB.01 20-Dec-2017

 ----------------------------------------------------------------------
 #T wB97XD/def2svpp opt=tight freq int(grid=ultrafine) scf=(verytight,q
 c) Volume=tight
 ----------------------------------------------------------------------
 -----
 Dimer
 -----
 Symbolic Z-matrix:
 Charge =  0 Multiplicity = 1

 SCF Done:  E(RwB97XD) =  -459.152944818     a.u. after    7 cycles
 SCF Done:  E(RwB97XD) =  -459.155812719     a.u. after   11 cycles
 SCF Done:  E(RwB97XD) =  -459.151045656     a.u. after   11 cycles
 SCF Done:  E(RwB97XD) =  -459.155624074     a.u. after   11 cycles
 SCF Done:  E(RwB97XD) =  -459.156529800     a.u. after    3 cycles
 SCF Done:  E(RwB97XD) =  -459.156430255     a.u. after   11 cycles
 SCF Done:  E(RwB97XD) =  -459.157334574     a.u. after    7 cycles
 SCF Done:  E(RwB97XD) =  -459.157425645     a.u. after    9 cycles
 SCF Done:  E(RwB97XD) =  -459.157647894     a.u. after    7 cycles
 SCF Done:  E(RwB97XD) =  -459.157686181     a.u. after    5 cycles
 SCF Done:  E(RwB97XD) =  -459.157718861     a.u. after    2 cycles
 SCF Done:  E(RwB97XD) =  -459.157718865     a.u. after    2 cycles
 SCF Done:  E(RwB97XD) =  -459.157718868     a.u. after    2 cycles
 SCF Done:  E(RwB97XD) =  -459.157718869     a.u. after    2 cycles
 SCF Done:  E(RwB97XD) =  -459.157718870     a.u. after    2 cycles
 SCF Done:  E(RwB97XD) =  -459.157718871     a.u. after    2 cycles
 SCF Done:  E(RwB97XD) =  -459.157718871     a.u. after    2 cycles
 SCF Done:  E(RwB97XD) =  -459.157718871     a.u. after    2 cycles
 SCF Done:  E(RwB97XD) =  -459.157718871     a.u. after    2 cycles
 Optimization completed.
    -- Stationary point found.

 1\1\GINC-C272\FOpt\RwB97XD\def2SVPP\C6H20N4\PETERCHAO1\01-Apr-2024\0\\
 #T wB97XD/def2svpp opt=tight freq int(grid=ultrafine) scf=(verytight,q
 c) Volume=tight\\Dimer\\0,1\C,-3.3551381218,-1.0687240537,0.8686429478
 \C,-2.0470861514,-0.4241526847,0.4041378627\N,-1.2962163713,-1.2591721
 883,-0.5379690737\C,-2.298538151,0.9583580544,-0.2242448952\N,-1.14445
 09272,1.7515847706,-0.5703749333\H,-3.8671946056,-0.4465306661,1.62360
 2338\H,-3.1732331458,-2.0617952819,1.3172509882\H,-4.047078549,-1.2028
 42988,0.0159434849\H,-1.3946433137,-0.2760108138,1.2845164093\H,-1.861

 Normal termination of Gaussian 16 at Mon Apr  1 15:33:45 2024.

 ---------------------------------------------------------------------
 #T Geom=AllCheck Guess=TCheck SCRF=Check GenChk RwB97XD/def2SVPP Freq
 ---------------------------------------------------------------------
 Structure from the checkpoint file:  "dimer.chk"
 -----
 Dimer
 -----
 Charge =  0 Multiplicity = 1

                         Standard orientation:
 ---------------------------------------------------------------------
 Center     Atomic      Atomic             Coordinates (Angstroms)
 Number     Number       Type             X           Y           Z
 ---------------------------------------------------------------------
      1          6           0        3.402121   -0.924515   -0.761631
      2          6           0        2.059009   -0.325696   -0.337719
      3          7           0        1.300511   -1.194943    0.566559
      4          6           0        2.245125    1.055651    0.315481
      5          7           0        1.055530    1.809203    0.628458
      6          1           0        3.921829   -0.277574   -1.490096
      7          1           0        3.267048   -1.916825   -1.228114
      8          1           0        4.066577   -1.048547    0.114143
      9          1           0        1.434577   -0.186103   -1.239546
     10          1           0        1.840830   -1.367374    1.417882
     11          1           0        1.135933   -2.105811    0.135706
     12          1           0        2.884071    1.666979   -0.346985
     13          1           0        2.831676    0.910982    1.246415
     14          1           0        0.406249    1.262868    1.195150
     15          1           0        0.545639    2.086377   -0.211826
     16          6           0       -2.459703   -1.879484   -0.293448
     17          6           0       -2.388952   -0.413759    0.145114
     18          7           0       -1.565531   -0.189767    1.328492
     19          6           0       -1.848243    0.482003   -0.979182
     20          7           0       -1.836488    1.901542   -0.670642
     21          1           0       -3.125447   -2.017433   -1.164587
     22          1           0       -2.835749   -2.516913    0.526427
     23          1           0       -1.453339   -2.243934   -0.570352
     24          1           0       -3.413182   -0.065956    0.382119
     25          1           0       -0.631050   -0.598383    1.179137
     26          1           0       -1.979478   -0.618262    2.155467
     27          1           0       -2.424491    0.317864   -1.906551
     28          1           0       -0.812511    0.152930   -1.194379
     29          1           0       -1.636891    2.006451    0.327281
     30          1           0       -2.756578    2.311212   -0.829054
 ---------------------------------------------------------------------

 SCF Done:  E(RwB97XD) =  -459.157718871     a.u. after    1 cycles

 The electronic state is 1-A.
 Alpha  occ. eigenvalues --  -14.43226 -14.40077 -14.40006 -14.38603 -10.31980
 Alpha  occ. eigenvalues --  -10.31176 -10.30286 -10.30166 -10.28611 -10.27970
 Alpha  occ. eigenvalues --   -0.99529  -0.98190  -0.94241  -0.93819  -0.83278
 Alpha  occ. eigenvalues --   -0.82155  -0.74475  -0.74154  -0.67372  -0.66311
 Alpha  occ. eigenvalues --   -0.60103  -0.59386  -0.56454  -0.55394  -0.53173
 Alpha  occ. eigenvalues --   -0.52372  -0.52064  -0.50688  -0.50268  -0.49226
 Alpha  occ. eigenvalues --   -0.46677  -0.46374  -0.45701  -0.45534  -0.43253
 Alpha  occ. eigenvalues --   -0.42513  -0.41990  -0.40943  -0.33743  -0.31101
 Alpha  occ. eigenvalues --   -0.30203  -0.29086
 Alpha virt. eigenvalues --    0.11590   0.13863   0.15059   0.16051   0.17511
 Alpha virt. eigenvalues --    0.18041   0.18664   0.19921   0.20773   0.21219
 Alpha virt. eigenvalues --    0.21809   0.22538   0.22953   0.24180   0.25532

 Mulliken charges:
               1
     1  C   -0.299119
     2  C   -0.108312
     3  N   -0.510469
     4  C   -0.077185
     5  N   -0.534471
     6  H    0.120031
     7  H    0.112746
     8  H    0.106661
     9  H    0.110858
    10  H    0.222820
    11  H    0.232698
    12  H    0.101743
    13  H    0.082482
    14  H    0.229927
    15  H    0.240207
    16  C   -0.297049
    17  C   -0.094580
    18  N   -0.547318
    19  C   -0.081647
    20  N   -0.515929
    21  H    0.110346
    22  H    0.109419
    23  H    0.100877
    24  H    0.075074
    25  H    0.249619
    26  H    0.214044
    27  H    0.097530
    28  H    0.091211
    29  H    0.243859
    30  H    0.213927
 Sum of Mulliken charges =  -0.00000

 Dipole moment (field-independent basis, Debye):
    X=             -0.2431    Y=             -3.7046    Z=             -0.1003  Tot=              3.7139
  Exact polarizability: 107.637  -0.328  93.209  -0.116  -0.308  86.175
 Approx polarizability: 101.196  -0.893  94.481   1.039  -0.674  96.636
   1 Symmetry operations used in ECPInt.
 ECPInt:  NShTT=    5050 NPrTT=   20290 LenC2=    4983 LenP2D=   15053.
 LDataN:  DoStor=T MaxTD1= 6 Len=  172
 Calling FoFJK, ICntrl=    100127 FMM=F ISym2X=0 I1Cent= 0 IOpClX= 0 NMat=1 NMatS=1 NMatT=0.
 Full mass-weighted force constant matrix:
 Low frequencies ---   -8.1806   -0.0007    0.0002    0.0008    4.8995    7.1862
 Low frequencies ---   41.9236   53.7197   75.2909
 Diagonal vibrational polarizability:

                      1                      2                      3
                      A                      A                      A
 Frequencies --     41.9060                53.6908                75.2889
 Red. masses --      3.0246                 3.3663                 2.9521
 Frc consts  --      0.0031                 0.0057                 0.0099
 IR Inten    --      0.5018                 2.0829                 0.8971

                      4                      5                      6
                      A                      A                      A
 Frequencies --     93.1094               114.5025               139.9598
 Red. masses --      3.6655                 3.6761                 3.4141
 Frc consts  --      0.0187                 0.0284                 0.0394
 IR Inten    --      0.4812                 2.9287                 0.8099

                      7                      8                      9
                      A                      A                      A
 Frequencies --    177.1125               189.9049               243.9986
 Red. masses --      2.2106                 2.4179                 1.1582
 Frc consts  --      0.0409                 0.0514                 0.0406
 IR Inten    --      2.6288                 2.2144                 1.9578

                     10                     11                     12
                      A                      A                      A
 Frequencies --    245.4220               278.3017               289.2576
 Red. masses --      1.1523                 2.1764                 2.4101
 Frc consts  --      0.0409                 0.0993                 0.1188
 IR Inten    --      0.4248                 2.3006                 2.3661

                     13                     14                     15
                      A                      A                      A
 Frequencies --    319.5175               327.1725               385.4774
 Red. masses --      1.1562                 1.1040                 2.3507
 Frc consts  --      0.0695                 0.0696                 0.2058
 IR Inten    --     32.5244                26.2591                 9.6032

                     16                     17                     18
                      A                      A                      A
 Frequencies --    391.7247               408.7140               452.6282
 Red. masses --      2.1828                 1.1377                 1.5560
 Frc consts  --      0.1973                 0.1120                 0.1878
 IR Inten    --      4.1883                72.5159                21.3321

                     19                     20                     21
                      A                      A                      A
 Frequencies --    472.7899               508.8730               519.4310
 Red. masses --      1.8370                 1.8238                 2.7603
 Frc consts  --      0.2419                 0.2783                 0.4388
 IR Inten    --      3.0374                17.4231                10.4132

                     22                     23                     24
                      A                      A                      A
 Frequencies --    548.3314               829.0665               841.4103
 Red. masses --      1.8106                 2.0306                 2.2273
 Frc consts  --      0.3207                 0.8224                 0.9291
 IR Inten    --     42.8452                26.6493                20.2675

                     25                     26                     27
                      A                      A                      A
 Frequencies --    887.7384               892.5196               907.1703
 Red. masses --      1.2959                 1.2897                 1.5236
 Frc consts  --      0.6017                 0.6053                 0.7388
 IR Inten    --      9.2175                 7.2583                85.6288

                     28                     29                     30
                      A                      A                      A
 Frequencies --    919.5290               942.7943               959.4306
 Red. masses --      1.3752                 1.5526                 1.6886
 Frc consts  --      0.6851                 0.8131                 0.9158
 IR Inten    --    149.8429                95.6839                21.8751

                     31                     32                     33
                      A                      A                      A
 Frequencies --    970.2729               989.2002              1044.9412
 Red. masses --      1.3852                 1.2397                 1.4605
 Frc consts  --      0.7684                 0.7147                 0.9396
 IR Inten    --    128.1729               198.5487                 1.5202

                     34                     35                     36
                      A                      A                      A
 Frequencies --   1062.1124              1110.7501              1117.6755
 Red. masses --      1.5260                 1.7028                 1.4525
 Frc consts  --      1.0143                 1.2378                 1.0691
 IR Inten    --     14.8442                 6.0307                26.1978

                     37                     38                     39
                      A                      A                      A
 Frequencies --   1131.7306              1134.0681              1186.3051
 Red. masses --      1.9321                 1.8031                 2.5873
 Frc consts  --      1.4580                 1.3663                 2.1453
 IR Inten    --     37.3559                36.4026                 2.5530

                     40                     41                     42
                      A                      A                      A
 Frequencies --   1195.2944              1202.4271              1210.2965
 Red. masses --      1.8379                 2.0226                 1.8534
 Frc consts  --      1.5471                 1.7230                 1.5996
 IR Inten    --     15.0460                 3.5257                 3.8135

                     43                     44                     45
                      A                      A                      A
 Frequencies --   1309.9409              1320.6477              1342.4231
 Red. masses --      1.5248                 1.4423                 1.3331
 Frc consts  --      1.5416                 1.4821                 1.4155
 IR Inten    --      3.1772                 8.1607                 5.3105

                     46                     47                     48
                      A                      A                      A
 Frequencies --   1346.9499              1393.8453              1399.8505
 Red. masses --      1.4405                 1.1634                 1.2081
 Frc consts  --      1.5398                 1.3317                 1.3948
 IR Inten    --     10.4347                 0.9241                 1.6944

                     49                     50                     51
                      A                      A                      A
 Frequencies --   1407.6828              1412.0272              1417.4191
 Red. masses --      1.2666                 1.2413                 1.3863
 Frc consts  --      1.4788                 1.4582                 1.6410
 IR Inten    --      9.7212                 4.4004                 3.3503

                     52                     53                     54
                      A                      A                      A
 Frequencies --   1419.8127              1428.9546              1437.4597
 Red. masses --      1.3666                 1.3572                 1.3609
 Frc consts  --      1.6231                 1.6328                 1.6568
 IR Inten    --      5.7903                12.6049                10.3258

                     55                     56                     57
                      A                      A                      A
 Frequencies --   1476.2577              1483.3323              1489.2453
 Red. masses --      1.0931                 1.0869                 1.0504
 Frc consts  --      1.4035                 1.4090                 1.3726
 IR Inten    --      0.5362                 3.2094                 5.1309

                     58                     59                     60
                      A                      A                      A
 Frequencies --   1490.0009              1494.7929              1495.6309
 Red. masses --      1.0613                 1.1016                 1.0909
 Frc consts  --      1.3882                 1.4502                 1.4378
 IR Inten    --      3.4219                10.4314                 9.0008

                     61                     62                     63
                      A                      A                      A
 Frequencies --   1661.2021              1666.2274              1693.6017
 Red. masses --      1.0975                 1.0945                 1.0911
 Frc consts  --      1.7845                 1.7903                 1.8439
 IR Inten    --     35.0453                66.1188                22.0740

                     64                     65                     66
                      A                      A                      A
 Frequencies --   1718.7382              3001.9400              3018.7975
 Red. masses --      1.0888                 1.0682                 1.0429
 Frc consts  --      1.8950                 5.6715                 5.5994
 IR Inten    --     56.4920                46.1061                10.7709

                     67                     68                     69
                      A                      A                      A
 Frequencies --   3019.3509              3023.8212              3033.8470
 Red. masses --      1.0389                 1.0670                 1.0788
 Frc consts  --      5.5802                 5.7481                 5.8502
 IR Inten    --     34.1667                15.7576                77.9709

                     70                     71                     72
                      A                      A                      A
 Frequencies --   3051.2550              3083.6395              3096.0143
 Red. masses --      1.0859                 1.1001                 1.1027
 Frc consts  --      5.9568                 6.1634                 6.2273
 IR Inten    --     29.9691                29.1378                27.8641

                     73                     74                     75
                      A                      A                      A
 Frequencies --   3109.8604              3114.5330              3115.7797
 Red. masses --      1.1042                 1.1042                 1.1047
 Frc consts  --      6.2920                 6.3110                 6.3188
 IR Inten    --     30.5535                47.0417                31.7322

                     76                     77                     78
                      A                      A                      A
 Frequencies --   3122.0010              3358.5553              3468.3693
 Red. masses --      1.1042                 1.0646                 1.0518
 Frc consts  --      6.3410                 7.0753                 7.4547
 IR Inten    --     26.3986               222.9414                 0.0931

                     79                     80                     81
                      A                      A                      A
 Frequencies --   3476.3852              3495.0725              3554.1790
 Red. masses --      1.0523                 1.0518                 1.0827
 Frc consts  --      7.4930                 7.5698                 8.0585
 IR Inten    --      5.9145                35.0478                16.0196

                     82                     83                     84
                      A                      A                      A
 Frequencies --   3555.4598              3563.8194              3576.3441
 Red. masses --      1.0918                 1.0913                 1.0932
 Frc consts  --      8.1321                 8.1667                 8.2379
 IR Inten    --      1.8614                 4.8322                20.4352

                           ! Non-Optimized Parameters !

 1\1\GINC-C272\Freq\RwB97XD\def2SVPP\C6H20N4\PETERCHAO1\01-Apr-2024\0\\
 #T Geom=AllCheck Guess=TCheck SCRF=Check GenChk RwB97XD/def2SVPP Freq\
 \Dimer\\0,1\C,-3.3551381218,-1.0687240537,0.8686429478\C,-2.0470861514
 ,-0.4241526847,0.4041378627\N,-1.2962163713,-1.2591721883,-0.537969073
 7\C,-2.298538151,0.9583580544,-0.2242448952\N,-1.1444509272,1.75158477
 06,-0.5703749333\H,-3.8671946056,-0.4465306661,1.623602338\H,-3.173233
 1458,-2.0617952819,1.3172509882\H,-4.047078549,-1.202842988,0.01594348
 49\H,-1.3946433137,-0.2760108138,1.2845164093\H,-1.8618057279,-1.43814

 Normal termination of Gaussian 16 at Mon Apr  1 15:38:09 2024.
