 Gaussian 16, Revision B.01,
 Gaussian 16:  ES64L-G16RevB.01 20-Dec-2017

 ------------------------------------------------------------------
 #T wB97XD/def2svpp opt freq int(grid=ultrafine) scf=(verytight,qc)
 ------------------------------------------------------------------
 --------------
 Comment gs min
 --------------
 Symbolic Z-matrix:
 Charge =  0 Multiplicity = 1

 SCF Done:  E(RwB97XD) =  -617.733953525     a.u. after    7 cycles
 SCF Done:  E(RwB97XD) =  -617.734996061     a.u. after    4 cycles
 SCF Done:  E(RwB97XD) =  -617.735111391     a.u. after    4 cycles
 SCF Done:  E(RwB97XD) =  -617.735121504     a.u. after    3 cycles
 Optimization completed.
    -- Stationary point found.

 1\1\GINC-C041\FOpt\RwB97XD\def2SVPP\C4H9Cl1\PETERCHAO1\05-Aug-2022\0\\
 #T wB97XD/def2svpp opt freq int(grid=ultrafine) scf=(verytight,qc)\\Co
 mment gs min\\0,1\C,0.9926128455,0.092051769,-0.0602750022\C,2.5169138
 129,0.0837841154,-0.0025419907\C,3.0521317142,1.2375395677,0.839696158
 6\C,3.0521141035,-1.2597845728,0.4825653793\Cl,3.1289018382,0.32866745
 56,-1.7143458345\H,0.5829370552,-0.0528648558,0.9559884873\H,0.6183069
 501,-0.71911849,-0.7063666084\H,0.6184256514,1.0515397217,-0.453840636
 4\H,2.704356043,1.1267870222,1.8829672106\H,2.6943757057,2.2062574889,

 Normal termination of Gaussian 16 at Fri Aug  5 12:59:48 2022.

 ---------------------------------------------------------------------
 #T Geom=AllCheck Guess=TCheck SCRF=Check GenChk RwB97XD/def2SVPP Freq
 ---------------------------------------------------------------------
 Structure from the checkpoint file:  "/scratch/user/peterchao1/peterchao1/6101726_1659722319000000767331691/Gau-162386.chk"
 --------------
 Comment gs min
 --------------
 Charge =  0 Multiplicity = 1

                         Standard orientation:
 ---------------------------------------------------------------------
 Center     Atomic      Atomic             Coordinates (Angstroms)
 Number     Number       Type             X           Y           Z
 ---------------------------------------------------------------------
      1          6           0       -0.810616    0.001435    1.456370
      2          6           0       -0.356947    0.000003   -0.000021
      3          6           0       -0.810238   -1.262143   -0.726994
      4          6           0       -0.810458    1.260586   -0.729544
      5         17           0        1.477384    0.000074    0.000101
      6          1           0       -1.915027    0.000975    1.500014
      7          1           0       -0.440922    0.896468    1.983417
      8          1           0       -0.440089   -0.892106    1.985352
      9          1           0       -1.914633   -1.300313   -0.748971
     10          1           0       -0.439919   -2.165889   -0.215506
     11          1           0       -0.439948   -1.273217   -1.765388
     12          1           0       -1.914874    1.298584   -0.751316
     13          1           0       -0.440441    1.269453   -1.768066
     14          1           0       -0.440117    2.165515   -0.220126
 ---------------------------------------------------------------------

 SCF Done:  E(RwB97XD) =  -617.735121504     a.u. after    1 cycles

 The electronic state is 1-A.
 Alpha  occ. eigenvalues -- -101.64572 -10.36633 -10.29417 -10.29417 -10.29414
 Alpha  occ. eigenvalues --   -9.55362  -7.30714  -7.29782  -7.29782  -0.96140
 Alpha  occ. eigenvalues --   -0.85239  -0.78971  -0.78970  -0.63744  -0.55686
 Alpha  occ. eigenvalues --   -0.54196  -0.54195  -0.48852  -0.48851  -0.45846
 Alpha  occ. eigenvalues --   -0.43628  -0.43628  -0.42700  -0.36443  -0.36442
 Alpha virt. eigenvalues --    0.10887   0.12899   0.19123   0.19124   0.19853
 Alpha virt. eigenvalues --    0.19853   0.20132   0.23844   0.23845   0.26616
 Alpha virt. eigenvalues --    0.26762   0.29514   0.29514   0.46436   0.46970

 Mulliken charges:
               1
     1  C   -0.240191
     2  C   -0.265427
     3  C   -0.240184
     4  C   -0.240190
     5  Cl  -0.157918
     6  H    0.118618
     7  H    0.131338
     8  H    0.131343
     9  H    0.118620
    10  H    0.131342
    11  H    0.131339
    12  H    0.118621
    13  H    0.131334
    14  H    0.131353
 Sum of Mulliken charges =  -0.00000

 Dipole moment (field-independent basis, Debye):
    X=             -2.1123    Y=             -0.0001    Z=             -0.0002  Tot=              2.1123
  Exact polarizability:  58.237   0.000  49.490  -0.004   0.000  49.490
 Approx polarizability:  65.678   0.001  51.158   0.001   0.000  51.157
   1 Symmetry operations used in ECPInt.
 ECPInt:  NShTT=    1275 NPrTT=    5355 LenC2=    1273 LenP2D=    4422.
 LDataN:  DoStor=T MaxTD1= 6 Len=  172
 Calling FoFJK, ICntrl=    100127 FMM=F ISym2X=0 I1Cent= 0 IOpClX= 0 NMat=1 NMatS=1 NMatT=0.
 Full mass-weighted force constant matrix:
 Low frequencies ---   -4.4944   -0.0045   -0.0044   -0.0026    6.9674    8.3849
 Low frequencies ---  246.1290  301.6280  301.8169
 Diagonal vibrational polarizability:

                      1                      2                      3
                      A                      A                      A
 Frequencies --    246.1284               301.6252               301.8142
 Red. masses --      1.0119                 1.1341                 1.1490
 Frc consts  --      0.0361                 0.0608                 0.0617
 IR Inten    --      0.0000                 0.1849                 0.2053

                      4                      5                      6
                      A                      A                      A
 Frequencies --    307.2937               307.3013               382.0172
 Red. masses --      2.2616                 2.2527                 3.0950
 Frc consts  --      0.1258                 0.1253                 0.2661
 IR Inten    --      0.9894                 0.9857                 3.6382

                      7                      8                      9
                      A                      A                      A
 Frequencies --    420.0664               420.3027               605.0773
 Red. masses --      2.4361                 2.4379                 3.6658
 Frc consts  --      0.2533                 0.2537                 0.7908
 IR Inten    --      0.7532                 0.7473                22.8425

                     10                     11                     12
                      A                      A                      A
 Frequencies --    843.4895               952.7509               952.8985
 Red. masses --      2.8173                 1.5416                 1.5414
 Frc consts  --      1.1810                 0.8245                 0.8246
 IR Inten    --      9.2902                 0.2564                 0.2640

                     13                     14                     15
                      A                      A                      A
 Frequencies --    981.8622              1060.1211              1060.3725
 Red. masses --      1.2021                 1.4039                 1.4036
 Frc consts  --      0.6828                 0.9296                 0.9299
 IR Inten    --      0.0003                 0.0320                 0.0323

                     16                     17                     18
                      A                      A                      A
 Frequencies --   1202.3641              1280.5577              1280.6133
 Red. masses --      1.9709                 2.5350                 2.5356
 Frc consts  --      1.6788                 2.4492                 2.4500
 IR Inten    --     62.1805                 7.3713                 7.3751

                     19                     20                     21
                      A                      A                      A
 Frequencies --   1412.8234              1413.0267              1435.1995
 Red. masses --      1.3344                 1.3344                 1.2357
 Frc consts  --      1.5693                 1.5698                 1.4996
 IR Inten    --     16.8999                16.9346                 4.2020

                     22                     23                     24
                      A                      A                      A
 Frequencies --   1465.1037              1478.3694              1478.6553
 Red. masses --      1.0447                 1.0429                 1.0429
 Frc consts  --      1.3212                 1.3430                 1.3435
 IR Inten    --      0.0000                 0.3323                 0.3265

                     25                     26                     27
                      A                      A                      A
 Frequencies --   1492.0697              1492.2151              1510.9008
 Red. masses --      1.0648                 1.0648                 1.0521
 Frc consts  --      1.3967                 1.3970                 1.4150
 IR Inten    --      8.4322                 8.4162                10.2923

                     28                     29                     30
                      A                      A                      A
 Frequencies --   3034.0100              3034.0718              3039.7216
 Red. masses --      1.0380                 1.0380                 1.0386
 Frc consts  --      5.6294                 5.6297                 5.6542
 IR Inten    --     14.1005                14.1032                18.6777

                     31                     32                     33
                      A                      A                      A
 Frequencies --   3128.2051              3128.2930              3133.4451
 Red. masses --      1.1034                 1.1034                 1.1027
 Frc consts  --      6.3618                 6.3621                 6.3790
 IR Inten    --      2.7818                 2.8180                31.8948

                     34                     35                     36
                      A                      A                      A
 Frequencies --   3147.0518              3149.8094              3149.9050
 Red. masses --      1.1069                 1.1060                 1.1060
 Frc consts  --      6.4591                 6.4650                 6.4654
 IR Inten    --      0.0101                16.2642                16.3197

 Optimization completed.
    -- Stationary point found.

 1\1\GINC-C041\Freq\RwB97XD\def2SVPP\C4H9Cl1\PETERCHAO1\05-Aug-2022\0\\
 #T Geom=AllCheck Guess=TCheck SCRF=Check GenChk RwB97XD/def2SVPP Freq\
 \Comment gs min\\0,1\C,0.9926128455,0.092051769,-0.0602750022\C,2.5169
 138129,0.0837841154,-0.0025419907\C,3.0521317142,1.2375395677,0.839696
 1586\C,3.0521141035,-1.2597845728,0.4825653793\Cl,3.1289018382,0.32866
 74556,-1.7143458345\H,0.5829370552,-0.0528648558,0.9559884873\H,0.6183
 069501,-0.71911849,-0.7063666084\H,0.6184256514,1.0515397217,-0.453840
 6364\H,2.704356043,1.1267870222,1.8829672106\H,2.6943757057,2.20625748

 Normal termination of Gaussian 16 at Fri Aug  5 13:00:28 2022.
