 Gaussian 16, Revision B.01,
 Gaussian 16:  ES64L-G16RevB.01 20-Dec-2017

 --------------------------------------------------------------
 #T wB97XD//def2svpp Volume=tight Geom=AllCheckpoint Guess=Read
 --------------------------------------------------------------
 Structure from the checkpoint file:  "18.chk"
 -----
 Dimer
 -----
 Charge =  0 Multiplicity = 1

                         Standard orientation:
 ---------------------------------------------------------------------
 Center     Atomic      Atomic             Coordinates (Angstroms)
 Number     Number       Type             X           Y           Z
 ---------------------------------------------------------------------
      1          6           0        2.554056    0.911029   -0.000024
      2          6           0        1.325182   -0.016489    0.000000
      3          6           0        1.351891   -0.893763   -1.257823
      4          6           0        1.351878   -0.893682    1.257880
      5          6           0        0.099376    0.908010   -0.000033
      6         35           0       -1.630893    0.002779   -0.000001
      7          1           0        2.570605    1.559430    0.894259
      8          1           0        2.570614    1.559372   -0.894348
      9          1           0        3.483021    0.314361    0.000000
     10          1           0        2.270049   -1.506754   -1.278562
     11          1           0        1.334445   -0.277217   -2.174631
     12          1           0        0.485373   -1.575599   -1.289493
     13          1           0        1.334426   -0.277078    2.174648
     14          1           0        2.270035   -1.506674    1.278666
     15          1           0        0.485358   -1.575514    1.289586
     16          1           0        0.091511    1.548866   -0.894582
     17          1           0        0.091509    1.548926    0.894473
 ---------------------------------------------------------------------

 SCF Done:  E(RwB97XD) =  -2770.85222213     A.U. after    1 cycles

 The electronic state is 1-A.
 Alpha  occ. eigenvalues -- -483.04272 -62.62491 -56.43255 -56.42905 -56.42897
 Alpha  occ. eigenvalues --  -10.34448 -10.32321 -10.29289 -10.28470 -10.28468
 Alpha  occ. eigenvalues --   -8.79437  -6.61962  -6.60686  -6.60658  -2.72329
 Alpha  occ. eigenvalues --   -2.71972  -2.71950  -2.70933  -2.70933  -0.94117
 Alpha  occ. eigenvalues --   -0.87308  -0.78375  -0.77913  -0.75308  -0.62997
 Alpha  occ. eigenvalues --   -0.55931  -0.55403  -0.53463  -0.50576  -0.48994
 Alpha  occ. eigenvalues --   -0.46227  -0.45233  -0.44969  -0.42963  -0.41678
 Alpha  occ. eigenvalues --   -0.40873  -0.35207  -0.35085
 Alpha virt. eigenvalues --    0.08479   0.12672   0.16877   0.17274   0.18953
 Alpha virt. eigenvalues --    0.19507   0.19768   0.20992   0.22379   0.25081
 Alpha virt. eigenvalues --    0.26096   0.26486   0.26528   0.28532   0.30039

 Mulliken charges:
               1
     1  C   -0.274401
     2  C   -0.258824
     3  C   -0.270269
     4  C   -0.270270
     5  C   -0.188574
     6  Br  -0.133720
     7  H    0.117799
     8  H    0.117799
     9  H    0.124803
    10  H    0.116995
    11  H    0.113753
    12  H    0.134639
    13  H    0.113753
    14  H    0.116995
    15  H    0.134639
    16  H    0.152442
    17  H    0.152441
 Sum of Mulliken charges =  -0.00000

 Dipole moment (field-independent basis, Debye):
    X=              1.8974    Y=              0.6319    Z=             -0.0000  Tot=              1.9998
 Evaluate density.
 Using the total density.
 Monte-Carlo method of calculating molar volume:
 based on  0.001 e/bohr**3 density envelope.
 Number of points per bohr**3 =  100 CutOff= 1.00D-04
 Using the SCF density.
 There are      2097 points.  Will hold      2097 in memory.
 LenV=  1048274280 MDV=  1048576000.
 Box volume = 9234.484 fraction occupied=0.130
 Integrated density= 1.0263810780299900D+02 error= 2.6638107802999002D+01

 Normal termination of Gaussian 16 at Fri Feb  3 12:58:10 2023.
