 Gaussian 16, Revision B.01,
 Gaussian 16:  ES64L-G16RevB.01 20-Dec-2017

 --------------------------------------------------------------
 #T wB97XD//def2svpp Volume=tight Geom=AllCheckpoint Guess=Read
 --------------------------------------------------------------
 Structure from the checkpoint file:  "29.chk"
 -------
 Monomer
 -------
 Charge =  0 Multiplicity = 1

                         Standard orientation:
 ---------------------------------------------------------------------
 Center     Atomic      Atomic             Coordinates (Angstroms)
 Number     Number       Type             X           Y           Z
 ---------------------------------------------------------------------
      1          6           0        0.114437   -0.364855    1.664584
      2          6           0       -0.049641   -0.039042    0.191392
      3          6           0        0.565106    1.331331   -0.175043
      4          8           0        1.963285    1.337032   -0.004194
      5          6           0        0.544652   -1.154991   -0.709788
      6          8           0        1.877224   -1.416612   -0.400768
      7          7           0       -1.522615    0.055828   -0.160759
      8          8           0       -2.341391   -0.202839    0.689013
      9          8           0       -1.782417    0.379632   -1.300966
     10          1           0        1.186179   -0.494172    1.882245
     11          1           0       -0.389592   -1.309046    1.919326
     12          1           0       -0.302412    0.430704    2.303701
     13          1           0        0.081174    2.129179    0.421265
     14          1           0        0.375998    1.538949   -1.237623
     15          1           0        2.178773    1.427561    0.934136
     16          1           0        0.403760   -0.860442   -1.767939
     17          1           0       -0.020107   -2.087456   -0.540663
     18          1           0        2.363607   -0.578431   -0.480683
 ---------------------------------------------------------------------

 SCF Done:  E(RwB97XD) =  -512.816442666     A.U. after    1 cycles

 The electronic state is 1-A.
 Alpha  occ. eigenvalues --  -19.29873 -19.29731 -19.29487 -19.25896 -14.68726
 Alpha  occ. eigenvalues --  -10.37528 -10.37352 -10.35999 -10.31016  -1.34436
 Alpha  occ. eigenvalues --   -1.16617  -1.16170  -1.12674  -0.95622  -0.81296
 Alpha  occ. eigenvalues --   -0.80045  -0.78066  -0.67158  -0.66542  -0.64757
 Alpha  occ. eigenvalues --   -0.62589  -0.61346  -0.59821  -0.56428  -0.55535
 Alpha  occ. eigenvalues --   -0.51929  -0.51655  -0.49081  -0.47907  -0.46322
 Alpha  occ. eigenvalues --   -0.44189  -0.40759  -0.40012  -0.38931  -0.38466
 Alpha  occ. eigenvalues --   -0.36512
 Alpha virt. eigenvalues --    0.00371   0.09787   0.14472   0.16263   0.17315
 Alpha virt. eigenvalues --    0.17848   0.18614   0.19800   0.21225   0.23789
 Alpha virt. eigenvalues --    0.25272   0.27635   0.28007   0.29086   0.30422

 Mulliken charges:
               1
     1  C   -0.258229
     2  C   -0.265193
     3  C    0.052708
     4  O   -0.488915
     5  C    0.094680
     6  O   -0.485480
     7  N    0.243761
     8  O   -0.232993
     9  O   -0.249639
    10  H    0.127720
    11  H    0.148604
    12  H    0.133468
    13  H    0.122476
    14  H    0.148218
    15  H    0.336686
    16  H    0.122949
    17  H    0.119858
    18  H    0.329321
 Sum of Mulliken charges =   0.00000

 Dipole moment (field-independent basis, Debye):
    X=              2.2530    Y=              1.6373    Z=              1.9287  Tot=              3.3878
 Evaluate density.
 Using the total density.
 Monte-Carlo method of calculating molar volume:
 based on  0.001 e/bohr**3 density envelope.
 Number of points per bohr**3 =  100 CutOff= 1.00D-04
 Using the SCF density.
 There are      1776 points.  Will hold      1776 in memory.
 LenV=  1048274947 MDV=  1048576000.
 Box volume = 5610.642 fraction occupied=0.185
 Integrated density= 1.0683180595079398D+02 error= 3.4831805950793978D+01

 Normal termination of Gaussian 16 at Fri Sep 23 14:22:19 2022.
