 Gaussian 16, Revision B.01,
 Gaussian 16:  ES64L-G16RevB.01 20-Dec-2017

 ----------------------------------------------------------------------
 #T wB97XD/def2svpp opt=tight freq int(grid=ultrafine) scf=(verytight,q
 c)
 ----------------------------------------------------------------------
 -------
 comment
 -------
 Symbolic Z-matrix:
 Charge =  1 Multiplicity = 2

 SCF Done:  E(UwB97XD) =  -383.305573935     a.u. after   10 cycles
 SCF Done:  E(UwB97XD) =  -383.313921563     a.u. after   11 cycles
 SCF Done:  E(UwB97XD) =  -383.314312077     a.u. after   15 cycles
 SCF Done:  E(UwB97XD) =  -383.316069902     a.u. after   11 cycles
 SCF Done:  E(UwB97XD) =  -383.318036588     a.u. after   11 cycles
 SCF Done:  E(UwB97XD) =  -383.318349822     a.u. after    7 cycles
 SCF Done:  E(UwB97XD) =  -383.318441621     a.u. after    7 cycles
 SCF Done:  E(UwB97XD) =  -383.318491326     a.u. after    6 cycles
 SCF Done:  E(UwB97XD) =  -383.318554688     a.u. after    8 cycles
 SCF Done:  E(UwB97XD) =  -383.318585932     a.u. after    7 cycles
 SCF Done:  E(UwB97XD) =  -383.318742451     a.u. after    4 cycles
 SCF Done:  E(UwB97XD) =  -383.318752592     a.u. after    4 cycles
 SCF Done:  E(UwB97XD) =  -383.318752361     a.u. after    4 cycles
 SCF Done:  E(UwB97XD) =  -383.318754594     a.u. after    4 cycles
 SCF Done:  E(UwB97XD) =  -383.318754998     a.u. after    3 cycles
 SCF Done:  E(UwB97XD) =  -383.318755068     a.u. after    2 cycles
 SCF Done:  E(UwB97XD) =  -383.318755106     a.u. after    2 cycles
 SCF Done:  E(UwB97XD) =  -383.318755111     a.u. after    2 cycles
 SCF Done:  E(UwB97XD) =  -383.318755112     a.u. after    2 cycles
 Optimization completed.
    -- Stationary point found.
 Normal termination of Gaussian 16 at Mon Jul 10 19:36:24 2023.

 ---------------------------------------------------------------------
 #T Geom=AllCheck Guess=TCheck SCRF=Check GenChk UwB97XD/def2SVPP Freq
 ---------------------------------------------------------------------
 Structure from the checkpoint file:  "9.chk"
 -------
 comment
 -------
 Charge =  1 Multiplicity = 2

                         Standard orientation:
 ---------------------------------------------------------------------
 Center     Atomic      Atomic             Coordinates (Angstroms)
 Number     Number       Type             X           Y           Z
 ---------------------------------------------------------------------
      1          8           0       -0.726712    1.525138   -0.613045
      2          6           0       -0.100440    1.317191    0.632803
      3          6           0        0.161358   -0.165880    0.782361
      4          6           0       -1.135297   -1.036630    0.564484
      5          8           0       -1.625790   -0.957283   -0.695645
      6          6           0        1.138803   -0.774615   -0.342394
      7          8           0        2.369690   -0.226950   -0.212704
      8          1           0       -0.951887    2.457983   -0.748390
      9          1           0       -0.738668    1.649616    1.475099
     10          1           0        0.844815    1.886728    0.720176
     11          1           0        0.583068   -0.374449    1.778634
     12          1           0       -1.822464   -0.560810    1.312512
     13          1           0       -0.977296   -2.091215    0.829669
     14          1           0       -1.727624   -0.005347   -0.944647
     15          1           0        0.619096   -0.539691   -1.298175
     16          1           0        1.223088   -1.858382   -0.182615
     17          1           0        2.423823    0.667929   -0.594641
 ---------------------------------------------------------------------

 SCF Done:  E(UwB97XD) =  -383.318755112     a.u. after    1 cycles

 The electronic state is 2-A.
 Alpha  occ. eigenvalues --  -19.50438 -19.49737 -19.46138 -10.56356 -10.56120
 Alpha  occ. eigenvalues --  -10.54355 -10.53901  -1.37073  -1.36452  -1.31857
 Alpha  occ. eigenvalues --   -1.10385  -0.98714  -0.97866  -0.89054  -0.85201
 Alpha  occ. eigenvalues --   -0.83951  -0.79965  -0.77379  -0.76236  -0.73076
 Alpha  occ. eigenvalues --   -0.72176  -0.71081  -0.68544  -0.66624  -0.62654
 Alpha  occ. eigenvalues --   -0.62372  -0.59887  -0.57436  -0.55660
 Alpha virt. eigenvalues --   -0.06123  -0.03324  -0.01567   0.00281   0.01280
 Alpha virt. eigenvalues --    0.01488   0.03567   0.04769   0.06039   0.07050
 Alpha virt. eigenvalues --    0.07693   0.09029   0.11384   0.12559   0.14040

  Beta  occ. eigenvalues --  -19.49775 -19.49028 -19.46128 -10.56249 -10.55975
  Beta  occ. eigenvalues --  -10.54376 -10.53561  -1.35600  -1.34914  -1.31698
  Beta  occ. eigenvalues --   -1.09178  -0.98156  -0.96759  -0.88323  -0.84551
  Beta  occ. eigenvalues --   -0.83148  -0.78936  -0.76663  -0.75245  -0.72261
  Beta  occ. eigenvalues --   -0.70494  -0.69387  -0.67252  -0.65910  -0.61791
  Beta  occ. eigenvalues --   -0.60616  -0.56266  -0.54644
  Beta virt. eigenvalues --   -0.33477  -0.05996  -0.03064  -0.01351   0.00421
  Beta virt. eigenvalues --    0.01733   0.01999   0.04144   0.05034   0.06493
  Beta virt. eigenvalues --    0.07756   0.07929   0.09225   0.11776   0.12883

 Mulliken charges and spin densities:
               1          2
     1  O   -0.518638   0.004806
     2  C    0.006403  -0.009096
     3  C   -0.343781   0.203192
     4  C   -0.006850   0.053044
     5  O   -0.325865   0.284143
     6  C    0.022872   0.088160
     7  O   -0.315265   0.260919
     8  H    0.375549  -0.000471
     9  H    0.174164   0.014304
    10  H    0.161465   0.014483
    11  H    0.203749  -0.010460
    12  H    0.224309   0.101796
    13  H    0.200057  -0.004031
    14  H    0.384043  -0.008264
    15  H    0.186702   0.018114
    16  H    0.191474  -0.002095
    17  H    0.379609  -0.008543
 Sum of Mulliken charges =   1.00000   1.00000

 Dipole moment (field-independent basis, Debye):
    X=             -0.2865    Y=              2.5066    Z=              1.3233  Tot=              2.8489
  Exact polarizability: 129.658  12.824  58.277  -5.190   0.264  48.733
 Approx polarizability: 113.255  11.158  57.675   1.349   0.152  55.507
                          Isotropic Fermi Contact Couplings
        Atom                 a.u.       MegaHertz       Gauss      10(-4) cm-1
     1  O(17)             -0.00178       1.08081       0.38566       0.36052
     2  C(13)             -0.01246     -14.00573      -4.99759      -4.67181
     3  C(13)              0.00024       0.26486       0.09451       0.08835
     4  C(13)             -0.01279     -14.38201      -5.13186      -4.79732
     5  O(17)              0.11361     -68.87224     -24.57533     -22.97331
     6  C(13)             -0.00558      -6.27478      -2.23900      -2.09304

                      1                      2                      3
                      A                      A                      A
 Frequencies --     55.3151               124.4335               168.4807
 Red. masses --      3.5380                 4.5057                 2.7334
 Frc consts  --      0.0064                 0.0411                 0.0457
 IR Inten    --      2.3893                 0.8801                 9.0863

                      4                      5                      6
                      A                      A                      A
 Frequencies --    244.9642               286.8563               352.5285
 Red. masses --      3.2518                 3.5432                 3.8860
 Frc consts  --      0.1150                 0.1718                 0.2845
 IR Inten    --     12.5584                18.9505                13.9768

                      7                      8                      9
                      A                      A                      A
 Frequencies --    385.1252               440.7587               454.5121
 Red. masses --      1.6509                 1.4068                 1.5976
 Frc consts  --      0.1443                 0.1610                 0.1945
 IR Inten    --     71.7283                66.6648                22.2834

                     10                     11                     12
                      A                      A                      A
 Frequencies --    496.2435               607.5181               678.8150
 Red. masses --      1.7739                 2.1724                 2.1785
 Frc consts  --      0.2574                 0.4724                 0.5914
 IR Inten    --     30.9511               221.5756               164.8409

                     13                     14                     15
                      A                      A                      A
 Frequencies --    711.8457               781.2402               908.4452
 Red. masses --      3.8119                 2.7969                 1.3291
 Frc consts  --      1.1381                 1.0058                 0.6463
 IR Inten    --     36.6392                24.3226               169.9768

                     16                     17                     18
                      A                      A                      A
 Frequencies --    958.0974              1004.1432              1020.5187
 Red. masses --      1.6781                 1.6724                 1.6032
 Frc consts  --      0.9076                 0.9935                 0.9838
 IR Inten    --     80.3205                23.6609                23.8121

                     19                     20                     21
                      A                      A                      A
 Frequencies --   1063.1291              1141.4124              1155.8199
 Red. masses --      1.3406                 1.3777                 1.7951
 Frc consts  --      0.8927                 1.0575                 1.4129
 IR Inten    --    116.3522                84.2896                87.0782

                     22                     23                     24
                      A                      A                      A
 Frequencies --   1175.0340              1236.8229              1242.0402
 Red. masses --      1.1484                 1.8322                 2.3019
 Frc consts  --      0.9342                 1.6514                 2.0923
 IR Inten    --     53.7595               219.5714                31.5317

                     25                     26                     27
                      A                      A                      A
 Frequencies --   1251.5386              1268.5005              1281.1410
 Red. masses --      1.2673                 1.2928                 1.3314
 Frc consts  --      1.1695                 1.2257                 1.2875
 IR Inten    --     87.6803                41.3059                11.9403

                     28                     29                     30
                      A                      A                      A
 Frequencies --   1315.8867              1373.7016              1390.7545
 Red. masses --      1.2092                 1.3794                 1.2767
 Frc consts  --      1.2336                 1.5336                 1.4549
 IR Inten    --      1.1685                22.4905                74.1787

                     31                     32                     33
                      A                      A                      A
 Frequencies --   1420.9385              1466.3141              1487.3899
 Red. masses --      1.2631                 1.5267                 1.1510
 Frc consts  --      1.5026                 1.9340                 1.5003
 IR Inten    --     31.0614                16.1814                17.8904

                     34                     35                     36
                      A                      A                      A
 Frequencies --   1492.4855              1516.0755              2879.0253
 Red. masses --      1.1919                 1.0865                 1.0668
 Frc consts  --      1.5642                 1.4714                 5.2096
 IR Inten    --     12.4380                44.2807               115.8149

                     37                     38                     39
                      A                      A                      A
 Frequencies --   2970.3108              3025.1136              3073.3543
 Red. masses --      1.0649                 1.0607                 1.1070
 Frc consts  --      5.5356                 5.7189                 6.1605
 IR Inten    --     10.7808                 4.7497                 4.2461

                     40                     41                     42
                      A                      A                      A
 Frequencies --   3133.3043              3171.7476              3179.2147
 Red. masses --      1.0882                 1.0960                 1.1005
 Frc consts  --      6.2946                 6.4960                 6.5539
 IR Inten    --      0.4427                15.8223                 1.1264

                     43                     44                     45
                      A                      A                      A
 Frequencies --   3412.4854              3680.6967              3756.9848
 Red. masses --      1.0672                 1.0671                 1.0673
 Frc consts  --      7.3223                 8.5177                 8.8757
 IR Inten    --    798.2503               439.7583               167.3196

 Optimization completed.
    -- Stationary point found.
 Normal termination of Gaussian 16 at Mon Jul 10 19:38:14 2023.
