 Gaussian 16, Revision B.01,
 Gaussian 16:  ES64L-G16RevB.01 20-Dec-2017

 ----------------------------------------------------------------------
 # opt=(calcall,tight,modredundant) wb97xd scf=(qc,verytight) def2svpp
 int=grid=ultrafine
 ----------------------------------------------------------------------

 -----
 dimer
 -----
 Symbolic Z-matrix:
 Charge =  0 Multiplicity = 1

 SCF Done:  E(RwB97XD) =  -20667.2706959     a.u. after    8 cycles
 SCF Done:  E(RwB97XD) =  -20667.2710083     a.u. after    5 cycles
 SCF Done:  E(RwB97XD) =  -20667.2710256     a.u. after    4 cycles
 SCF Done:  E(RwB97XD) =  -20667.2710251     a.u. after    3 cycles
 SCF Done:  E(RwB97XD) =  -20667.2710264     a.u. after    2 cycles
 SCF Done:  E(RwB97XD) =  -20667.2710232     a.u. after    2 cycles
 SCF Done:  E(RwB97XD) =  -20667.2710237     a.u. after    2 cycles
 SCF Done:  E(RwB97XD) =  -20667.2710233     a.u. after    2 cycles
 SCF Done:  E(RwB97XD) =  -20667.2710234     a.u. after    2 cycles
 Optimization completed.
    -- Stationary point found.

                         Standard orientation:
 ---------------------------------------------------------------------
 Center     Atomic      Atomic             Coordinates (Angstroms)
 Number     Number       Type             X           Y           Z
 ---------------------------------------------------------------------
      1         35           0       -1.807066    1.724288    0.648595
      2          6           0       -2.399986    0.001843   -0.002965
      3         35           0       -4.217253    0.179017   -0.673815
      4         35           0       -1.263234   -0.619271   -1.433405
      5         35           0       -2.400598   -1.284688    1.450213
      6         35           0        4.217276    0.234423    0.656587
      7          6           0        2.400010    0.002118    0.002712
      8         35           0        1.808169    1.663631   -0.792175
      9         35           0        2.400054   -1.402931   -1.336174
     10         35           0        1.262648   -0.495149    1.480217
 ---------------------------------------------------------------------

 The electronic state is 1-A.
 Alpha  occ. eigenvalues -- -483.09004-483.09004-483.08946-483.08945-483.08921
 Alpha  occ. eigenvalues -- -483.08920-483.08722-483.08721 -62.67225 -62.67225
 Alpha  occ. eigenvalues --  -62.67159 -62.67158 -62.67140 -62.67139 -62.66951
 Alpha  occ. eigenvalues --  -62.66950 -56.48041 -56.48041 -56.47978 -56.47977
 Alpha  occ. eigenvalues --  -56.47958 -56.47957 -56.47768 -56.47768 -56.47607
 Alpha  occ. eigenvalues --  -56.47607 -56.47604 -56.47604 -56.47540 -56.47539
 Alpha  occ. eigenvalues --  -56.47538 -56.47537 -56.47521 -56.47520 -56.47519
 Alpha  occ. eigenvalues --  -56.47517 -56.47329 -56.47329 -56.47328 -56.47328
 Alpha  occ. eigenvalues --  -10.50478 -10.50477  -8.84184  -8.84184  -8.84118
 Alpha  occ. eigenvalues --   -8.84117  -8.84101  -8.84100  -8.83915  -8.83914
 Alpha  occ. eigenvalues --   -6.66889  -6.66889  -6.66832  -6.66832  -6.66814
 Alpha  occ. eigenvalues --   -6.66813  -6.66628  -6.66627  -6.65326  -6.65326
 Alpha  occ. eigenvalues --   -6.65315  -6.65315  -6.65251  -6.65250  -6.65246
 Alpha  occ. eigenvalues --   -6.65245  -6.65237  -6.65237  -6.65229  -6.65229
 Alpha  occ. eigenvalues --   -6.65048  -6.65048  -6.65046  -6.65045  -2.77221
 Alpha  occ. eigenvalues --   -2.77221  -2.77165  -2.77164  -2.77145  -2.77145
 Alpha  occ. eigenvalues --   -2.76957  -2.76957  -2.76786  -2.76786  -2.76778
 Alpha  occ. eigenvalues --   -2.76777  -2.76721  -2.76720  -2.76717  -2.76716
 Alpha  occ. eigenvalues --   -2.76705  -2.76704  -2.76698  -2.76698  -2.76517
 Alpha  occ. eigenvalues --   -2.76516  -2.76515  -2.76514  -2.75531  -2.75530
 Alpha  occ. eigenvalues --   -2.75530  -2.75530  -2.75456  -2.75455  -2.75455
 Alpha  occ. eigenvalues --   -2.75455  -2.75441  -2.75441  -2.75440  -2.75440
 Alpha  occ. eigenvalues --   -2.75255  -2.75255  -2.75254  -2.75254  -1.01404
 Alpha  occ. eigenvalues --   -1.01186  -0.89721  -0.89661  -0.89522  -0.89464
 Alpha  occ. eigenvalues --   -0.89333  -0.89144  -0.70036  -0.69646  -0.55273
 Alpha  occ. eigenvalues --   -0.55200  -0.54954  -0.54907  -0.54682  -0.54483
 Alpha  occ. eigenvalues --   -0.43498  -0.42966  -0.42711  -0.41857  -0.41364
 Alpha  occ. eigenvalues --   -0.39964  -0.39901  -0.39803  -0.39767  -0.37642
 Alpha  occ. eigenvalues --   -0.37009  -0.36922  -0.36642  -0.36574  -0.36358
 Alpha  occ. eigenvalues --   -0.36237
 Alpha virt. eigenvalues --   -0.01862  -0.01818   0.03951   0.04042   0.04273
 Alpha virt. eigenvalues --    0.04280   0.04409   0.04967   0.24655   0.31598
 Alpha virt. eigenvalues --    0.35977   0.36078   0.38130   0.40018   0.40388

 Mulliken charges:
               1
     1  Br   0.078894
     2  C   -0.300892
     3  Br   0.069699
     4  Br   0.083166
     5  Br   0.069134
     6  Br   0.069688
     7  C   -0.300938
     8  Br   0.078914
     9  Br   0.069150
    10  Br   0.083184
 Sum of Mulliken charges =  -0.00000

 Dipole moment (field-independent basis, Debye):
    X=             -0.0001    Y=              0.0418    Z=             -0.0020  Tot=              0.0419
 Quadrupole moment (field-independent basis, Debye-Ang):
   XX=           -153.9966   YY=           -152.3271   ZZ=           -152.4537
   XY=              0.0011   XZ=              0.0108   YZ=             -0.0049

  Exact polarizability: 170.978   0.085 135.785   2.035  -0.042 134.979
 Approx polarizability: 187.938   0.006 181.636   0.159  -0.003 181.512

                      1                      2                      3
                      A                      A                      A
 Frequencies --     18.7498                30.2589                32.8439
 Red. masses --     78.2777                78.0283                78.2928
 Frc consts  --      0.0162                 0.0421                 0.0498
 IR Inten    --      0.0004                 0.0002                 0.0599

                      4                      5                      6
                      A                      A                      A
 Frequencies --     42.9042                46.8966                56.2449
 Red. masses --     74.8633                75.0403                65.5367
 Frc consts  --      0.0812                 0.0972                 0.1222
 IR Inten    --      0.0006                 0.0003                 0.0001

                      7                      8                      9
                      A                      A                      A
 Frequencies --    130.6655               132.5298               133.5475
 Red. masses --     78.8709                78.8994                78.8378
 Frc consts  --      0.7934                 0.8165                 0.8284
 IR Inten    --      0.0070                 0.0002                 0.0874

                     10                     11                     12
                      A                      A                      A
 Frequencies --    139.3839               191.0027               191.1446
 Red. masses --     78.6892                69.3481                69.5838
 Frc consts  --      0.9007                 1.4906                 1.4979
 IR Inten    --      0.0003                 0.0788                 0.1021

                     13                     14                     15
                      A                      A                      A
 Frequencies --    191.2538               193.0835               193.5874
 Red. masses --     69.6314                70.3250                68.9785
 Frc consts  --      1.5006                 1.5447                 1.5231
 IR Inten    --      0.2081                 0.0052                 0.0144

                     16                     17                     18
                      A                      A                      A
 Frequencies --    194.0451               283.1518               283.4404
 Red. masses --     68.9772                78.8694                78.8744
 Frc consts  --      1.5302                 3.7256                 3.7334
 IR Inten    --      0.0198                 0.0017                 0.0305

                     19                     20                     21
                      A                      A                      A
 Frequencies --    692.0805               694.3242               702.5871
 Red. masses --     12.6516                12.6436                12.6573
 Frc consts  --      3.5703                 3.5913                 3.6812
 IR Inten    --     19.9407               186.5898                30.8298

                     22                     23                     24
                      A                      A                      A
 Frequencies --    706.4560               715.9150               718.0609
 Red. masses --     12.6623                12.6710                12.6735
 Frc consts  --      3.7233                 3.8264                 3.8501
 IR Inten    --     57.4174                78.2925               134.3297

 - Thermochemistry -
 -------------------
 Temperature   298.150 Kelvin.  Pressure   1.00000 Atm.
 Atom     1 has atomic number 35 and mass  78.91834

 Molecular mass:   655.34669 amu.
 Principal axes and moments of inertia in atomic units:
                           1         2         3
     Eigenvalues --  5676.65785********************
           X            1.00000   0.00000   0.00001
           Y           -0.00000   1.00000   0.00000
           Z           -0.00001  -0.00000   1.00000
 This molecule is an asymmetric top.
 Rotational symmetry number  1.
 Warning -- assumption of classical behavior for rotation
           may cause significant error
 Rotational temperatures (Kelvin)      0.01526     0.00448     0.00448
 Rotational constants (GHZ):           0.31792     0.09330     0.09329
 Zero-point vibrational energy      40159.6 (Joules/Mol)
                                    9.59837 (Kcal/Mol)
 Warning -- explicit consideration of  18 degrees of freedom as
           vibrations may cause significant error
 Vibrational temperatures:     26.98    43.54    47.26    61.73    67.47
          (Kelvin)             80.92   188.00   190.68   192.15   200.54
                              274.81   275.01   275.17   277.80   278.53
                              279.19   407.39   407.81   995.75   998.98
                             1010.87  1016.43  1030.04  1033.13

 Zero-point correction=                           0.015296 (Hartree/Particle)
 Thermal correction to Energy=                    0.030962
 Thermal correction to Enthalpy=                  0.031907
 Thermal correction to Gibbs Free Energy=        -0.036424
 Sum of electronic and zero-point Energies=         -20667.255727
 Sum of electronic and thermal Energies=            -20667.240061
 Sum of electronic and thermal Enthalpies=          -20667.239117
 Sum of electronic and thermal Free Energies=       -20667.307448

                     E (Thermal)             CV                S
                      KCal/Mol        Cal/Mol-Kelvin    Cal/Mol-Kelvin
 Total                   19.429             44.957            143.814
 Electronic               0.000              0.000              0.000
 Translational            0.889              2.981             45.322
 Rotational               0.889              2.981             36.006
 Vibrational             17.652             38.996             62.487
 Vibration     1          0.593              1.986              6.762
 Vibration     2          0.594              1.984              5.812
 Vibration     3          0.594              1.983              5.650
 Vibration     4          0.595              1.980              5.120
 Vibration     5          0.595              1.979              4.944
 Vibration     6          0.596              1.975              4.585
 Vibration     7          0.612              1.923              2.936
 Vibration     8          0.613              1.921              2.909
 Vibration     9          0.613              1.920              2.894
 Vibration    10          0.615              1.914              2.812
 Vibration    11          0.634              1.852              2.218
 Vibration    12          0.634              1.852              2.217
 Vibration    13          0.634              1.852              2.216
 Vibration    14          0.635              1.849              2.198
 Vibration    15          0.635              1.849              2.193
 Vibration    16          0.635              1.848              2.189
 Vibration    17          0.682              1.705              1.515
 Vibration    18          0.682              1.704              1.513

 Normal termination of Gaussian 16 at Mon Sep 26 15:34:19 2022.
