 Gaussian 16, Revision B.01,
 Gaussian 16:  ES64L-G16RevB.01 20-Dec-2017

 ----------------------------------------------------------------------
 #T wB97XD/def2svpp opt=tight freq int(grid=ultrafine) scf=(verytight,q
 c)
 ----------------------------------------------------------------------
 -------
 comment
 -------
 Symbolic Z-matrix:
 Charge =  1 Multiplicity = 2

 SCF Done:  E(UwB97XD) =  -617.343372508     a.u. after   23 cycles
 SCF Done:  E(UwB97XD) =  -617.348427064     a.u. after    8 cycles
 SCF Done:  E(UwB97XD) =  -617.351014731     a.u. after   12 cycles
 SCF Done:  E(UwB97XD) =  -617.352103276     a.u. after    9 cycles
 SCF Done:  E(UwB97XD) =  -617.352317318     a.u. after    3 cycles
 SCF Done:  E(UwB97XD) =  -617.352614841     a.u. after    5 cycles
 SCF Done:  E(UwB97XD) =  -617.352752254     a.u. after    4 cycles
 SCF Done:  E(UwB97XD) =  -617.352915430     a.u. after    5 cycles
 SCF Done:  E(UwB97XD) =  -617.352953474     a.u. after    3 cycles
 SCF Done:  E(UwB97XD) =  -617.352951530     a.u. after    3 cycles
 SCF Done:  E(UwB97XD) =  -617.352959275     a.u. after    3 cycles
 SCF Done:  E(UwB97XD) =  -617.352959427     a.u. after    2 cycles
 SCF Done:  E(UwB97XD) =  -617.352959440     a.u. after    2 cycles
 SCF Done:  E(UwB97XD) =  -617.352959443     a.u. after    2 cycles
 Optimization completed.
    -- Stationary point found.
 Normal termination of Gaussian 16 at Mon Jul 10 19:27:39 2023.

 ---------------------------------------------------------------------
 #T Geom=AllCheck Guess=TCheck SCRF=Check GenChk UwB97XD/def2SVPP Freq
 ---------------------------------------------------------------------
 Structure from the checkpoint file:  "16.chk"
 -------
 comment
 -------
 Charge =  1 Multiplicity = 2

                         Standard orientation:
 ---------------------------------------------------------------------
 Center     Atomic      Atomic             Coordinates (Angstroms)
 Number     Number       Type             X           Y           Z
 ---------------------------------------------------------------------
      1          6           0        0.934058   -1.292768    0.602853
      2          6           0        0.329321   -0.000006    0.101419
      3          6           0        0.934057    1.292707    0.602981
      4          6           0        0.465694    0.000082   -1.603589
      5         17           0       -1.420439   -0.000009    0.174853
      6          1           0        2.016361   -1.295704    0.396296
      7          1           0        0.470730   -2.183216    0.150067
      8          1           0        0.793164   -1.345011    1.698543
      9          1           0        2.016354    1.295679    0.396393
     10          1           0        0.793195    1.344823    1.698681
     11          1           0        0.470705    2.183200    0.150309
     12          1           0        1.568389    0.000078   -1.663949
     13          1           0        0.019896    0.917341   -2.010362
     14          1           0        0.019886   -0.917129   -2.010460
 ---------------------------------------------------------------------

 SCF Done:  E(UwB97XD) =  -617.352959443     a.u. after    1 cycles

 The electronic state is 2-A.
 Alpha  occ. eigenvalues -- -101.94784 -10.62259 -10.54860 -10.49398 -10.49395
 Alpha  occ. eigenvalues --   -9.85479  -7.60887  -7.60413  -7.59578  -1.23822
 Alpha  occ. eigenvalues --   -1.09503  -1.01076  -0.99850  -0.86540  -0.78212
 Alpha  occ. eigenvalues --   -0.76096  -0.75953  -0.71878  -0.70417  -0.67017
 Alpha  occ. eigenvalues --   -0.66920  -0.65734  -0.65489  -0.62355  -0.61093
 Alpha virt. eigenvalues --   -0.10427  -0.05983  -0.02975   0.00832   0.01465
 Alpha virt. eigenvalues --    0.02193   0.03300   0.04054   0.06581   0.06819
 Alpha virt. eigenvalues --    0.08825   0.09209   0.10322   0.25200   0.27258

  Beta  occ. eigenvalues -- -101.94442 -10.62010 -10.54425 -10.49365 -10.49363
  Beta  occ. eigenvalues --   -9.85111  -7.60303  -7.59571  -7.59323  -1.22125
  Beta  occ. eigenvalues --   -1.07865  -0.99593  -0.99450  -0.85137  -0.77479
  Beta  occ. eigenvalues --   -0.75423  -0.74041  -0.70395  -0.70101  -0.66371
  Beta  occ. eigenvalues --   -0.66100  -0.65333  -0.62939  -0.61661
  Beta virt. eigenvalues --   -0.37263  -0.09492  -0.04929  -0.01462   0.01085
  Beta virt. eigenvalues --    0.01723   0.02464   0.03407   0.04380   0.06665
  Beta virt. eigenvalues --    0.07152   0.09295   0.09343   0.10600   0.25572

 Mulliken charges and spin densities:
               1          2
     1  C   -0.233373   0.020182
     2  C   -0.430782   0.125878
     3  C   -0.233373   0.020183
     4  C   -0.247752   0.274264
     5  Cl   0.273139   0.480536
     6  H    0.190233  -0.002084
     7  H    0.192261   0.002835
     8  H    0.211556   0.027348
     9  H    0.190233  -0.002084
    10  H    0.211556   0.027348
    11  H    0.192261   0.002834
    12  H    0.231942   0.037773
    13  H    0.226049  -0.007507
    14  H    0.226049  -0.007507
 Sum of Mulliken charges =   1.00000   1.00000

 Dipole moment (field-independent basis, Debye):
    X=              1.5725    Y=              0.0000    Z=             -0.8881  Tot=              1.8060
  Exact polarizability:  69.604   0.000  49.624  -4.310  -0.000  53.738
 Approx polarizability:  79.004   0.000  50.440  -5.534  -0.000  56.911
                          Isotropic Fermi Contact Couplings
        Atom                 a.u.       MegaHertz       Gauss      10(-4) cm-1
     1  C(13)              0.00362       4.07324       1.45343       1.35869
     2  C(13)              0.00083       0.92921       0.33156       0.30995
     3  C(13)              0.00362       4.07352       1.45353       1.35878
     4  C(13)              0.10350     116.35421      41.51808      38.81159
     5  Cl(35)             0.08213      36.01111      12.84966      12.01201
     6  H(1)              -0.00073      -3.25464      -1.16134      -1.08563

                      1                      2                      3
                      A                      A                      A
 Frequencies --    200.0459               206.8842               275.2280
 Red. masses --      4.7605                 1.0185                 1.8455
 Frc consts  --      0.1122                 0.0257                 0.0824
 IR Inten    --     17.8906                 0.0967                 2.3115

                      4                      5                      6
                      A                      A                      A
 Frequencies --    279.4982               300.5243               374.7261
 Red. masses --      1.0316                 1.2772                 2.8387
 Frc consts  --      0.0475                 0.0680                 0.2349
 IR Inten    --      0.0931                 1.1670                 9.2929

                      7                      8                      9
                      A                      A                      A
 Frequencies --    389.6654               406.3990               463.7956
 Red. masses --      3.3332                 3.1596                 4.8076
 Frc consts  --      0.2982                 0.3075                 0.6093
 IR Inten    --      0.1732                12.0140                79.4577

                     10                     11                     12
                      A                      A                      A
 Frequencies --    631.3316               883.4902               909.1019
 Red. masses --      4.5611                 1.3117                 1.9499
 Frc consts  --      1.0711                 0.6032                 0.9495
 IR Inten    --      6.2258                18.3079                26.1741

                     13                     14                     15
                      A                      A                      A
 Frequencies --    923.5671               949.3460               991.4650
 Red. masses --      1.2118                 1.2488                 1.3357
 Frc consts  --      0.6090                 0.6631                 0.7736
 IR Inten    --      3.5436                 1.6599                 3.1354

                     16                     17                     18
                      A                      A                      A
 Frequencies --   1019.4389              1178.6527              1194.9349
 Red. masses --      1.3445                 4.0305                 1.9746
 Frc consts  --      0.8233                 3.2990                 1.6612
 IR Inten    --     50.4771                 3.3955                61.0846

                     19                     20                     21
                      A                      A                      A
 Frequencies --   1305.3294              1382.2674              1395.1312
 Red. masses --      1.1615                 1.1345                 1.1095
 Frc consts  --      1.1661                 1.2771                 1.2723
 IR Inten    --     31.9573                37.8077                 0.3745

                     22                     23                     24
                      A                      A                      A
 Frequencies --   1415.0212              1434.2168              1450.5524
 Red. masses --      1.1856                 1.0420                 1.0566
 Frc consts  --      1.3987                 1.2628                 1.3099
 IR Inten    --     13.7014                22.7406                 2.0427

                     25                     26                     27
                      A                      A                      A
 Frequencies --   1457.6116              1470.4754              1484.5058
 Red. masses --      1.0569                 1.0662                 1.0519
 Frc consts  --      1.3230                 1.3583                 1.3658
 IR Inten    --      3.5167                13.8787                29.2838

                     28                     29                     30
                      A                      A                      A
 Frequencies --   3034.1555              3039.6434              3049.7444
 Red. masses --      1.0385                 1.0375                 1.0306
 Frc consts  --      5.6329                 5.6477                 5.6479
 IR Inten    --     14.7710                23.4155                14.4964

                     31                     32                     33
                      A                      A                      A
 Frequencies --   3137.4349              3141.8655              3172.9729
 Red. masses --      1.0992                 1.0999                 1.1081
 Frc consts  --      6.3747                 6.3971                 6.5731
 IR Inten    --      3.0063                13.2257                 0.8185

                     34                     35                     36
                      A                      A                      A
 Frequencies --   3175.3883              3198.5212              3245.0215
 Red. masses --      1.1085                 1.1037                 1.1158
 Frc consts  --      6.5856                 6.6525                 6.9226
 IR Inten    --      0.8387                24.6809                 4.7670

                           ! Non-Optimized Parameters !
 Normal termination of Gaussian 16 at Mon Jul 10 19:28:38 2023.
