 Gaussian 16, Revision B.01,
 Gaussian 16:  ES64L-G16RevB.01 20-Dec-2017

 ----------------------------------------------------------------------
 #T wB97XD/def2svpp opt=tight freq int(grid=ultrafine) scf=(verytight,q
 c) Volume=tight
 ----------------------------------------------------------------------
 -------
 Monomer
 -------
 Symbolic Z-matrix:
 Charge =  0 Multiplicity = 1

 SCF Done:  E(RwB97XD) =  -496.908054440     a.u. after    8 cycles
 SCF Done:  E(RwB97XD) =  -496.909004363     a.u. after    9 cycles
 SCF Done:  E(RwB97XD) =  -496.905639270     a.u. after   11 cycles
 SCF Done:  E(RwB97XD) =  -496.909184758     a.u. after    7 cycles
 SCF Done:  E(RwB97XD) =  -496.909395284     a.u. after    8 cycles
 SCF Done:  E(RwB97XD) =  -496.909466867     a.u. after    5 cycles
 SCF Done:  E(RwB97XD) =  -496.909486385     a.u. after    4 cycles
 SCF Done:  E(RwB97XD) =  -496.909490620     a.u. after    3 cycles
 SCF Done:  E(RwB97XD) =  -496.909491640     a.u. after    2 cycles
 SCF Done:  E(RwB97XD) =  -496.909491797     a.u. after    2 cycles
 SCF Done:  E(RwB97XD) =  -496.909491772     a.u. after    2 cycles
 SCF Done:  E(RwB97XD) =  -496.909491758     a.u. after    2 cycles
 SCF Done:  E(RwB97XD) =  -496.909491753     a.u. after    2 cycles
 SCF Done:  E(RwB97XD) =  -496.909491763     a.u. after    2 cycles
 SCF Done:  E(RwB97XD) =  -496.909491755     a.u. after    2 cycles
 Optimization completed.
    -- Stationary point found.

 1\1\GINC-C041\FOpt\RwB97XD\def2SVPP\C5H10O4\PETERCHAO1\06-Feb-2023\0\\
 #T wB97XD/def2svpp opt=tight freq int(grid=ultrafine) scf=(verytight,q
 c) Volume=tight\\Monomer\\0,1\C,0.8503775438,-1.4551747564,-1.37913844
 98\C,0.0688194199,-0.5332962262,-0.4360934738\C,-1.150453907,0.0514157
 991,-1.1755210034\O,-1.9409012297,0.8954217687,-0.372457922\C,-0.39313
 30573,-1.3232614587,0.8127022782\O,-0.9704897535,-0.5099657676,1.78733
 82929\C,0.9390980017,0.6192492824,0.0407511701\O,2.096135391,0.2205084
 681,0.5701859166\O,0.6408890064,1.7889828147,-0.0317088974\H,1.1887703

 Normal termination of Gaussian 16 at Mon Feb  6 10:24:45 2023.

 ---------------------------------------------------------------------
 #T Geom=AllCheck Guess=TCheck SCRF=Check GenChk RwB97XD/def2SVPP Freq
 ---------------------------------------------------------------------
 Structure from the checkpoint file:  "35.chk"
 -------
 Monomer
 -------
 Charge =  0 Multiplicity = 1

                         Standard orientation:
 ---------------------------------------------------------------------
 Center     Atomic      Atomic             Coordinates (Angstroms)
 Number     Number       Type             X           Y           Z
 ---------------------------------------------------------------------
      1          6           0       -0.858360    1.648333   -1.045566
      2          6           0       -0.073433    0.562791   -0.300236
      3          6           0        1.169934    0.166764   -1.120278
      4          8           0        1.964440   -0.813170   -0.495337
      5          6           0        0.351065    1.081379    1.095402
      6          8           0        0.929063    0.091905    1.890112
      7          6           0       -0.927178   -0.678701   -0.093005
      8          8           0       -2.100948   -0.419446    0.484127
      9          8           0       -0.603369   -1.802060   -0.402308
     10          1           0       -1.170353    1.303332   -2.046418
     11          1           0       -0.227208    2.544547   -1.177425
     12          1           0       -1.761082    1.940441   -0.486230
     13          1           0        1.806960    1.058349   -1.245349
     14          1           0        0.857653   -0.165264   -2.129879
     15          1           0        1.433475   -1.629182   -0.495009
     16          1           0       -0.535625    1.455261    1.633289
     17          1           0        1.033545    1.945251    0.936261
     18          1           0        1.632212   -0.324165    1.358320
     19          1           0       -2.555243   -1.269791    0.621789
 ---------------------------------------------------------------------

 SCF Done:  E(RwB97XD) =  -496.909491755     a.u. after    1 cycles

 The electronic state is 1-A.
 Alpha  occ. eigenvalues --  -19.31907 -19.26480 -19.26257 -19.23945 -10.44672
 Alpha  occ. eigenvalues --  -10.35148 -10.34504 -10.32983 -10.30612  -1.22327
 Alpha  occ. eigenvalues --   -1.13625  -1.11938  -1.10459  -0.92402  -0.78141
 Alpha  occ. eigenvalues --   -0.77722  -0.76006  -0.68660  -0.63155  -0.60482
 Alpha  occ. eigenvalues --   -0.59331  -0.57179  -0.55011  -0.54683  -0.52560
 Alpha  occ. eigenvalues --   -0.50846  -0.50233  -0.48439  -0.47950  -0.46876
 Alpha  occ. eigenvalues --   -0.43951  -0.42184  -0.41355  -0.37950  -0.36004
 Alpha  occ. eigenvalues --   -0.34807
 Alpha virt. eigenvalues --    0.07012   0.12425   0.14002   0.15673   0.16771
 Alpha virt. eigenvalues --    0.18935   0.20950   0.21683   0.22923   0.23323
 Alpha virt. eigenvalues --    0.24440   0.27047   0.28744   0.30024   0.31009

 Mulliken charges:
               1
     1  C   -0.275936
     2  C   -0.403019
     3  C    0.078667
     4  O   -0.509452
     5  C    0.092331
     6  O   -0.499539
     7  C    0.282238
     8  O   -0.358167
     9  O   -0.262815
    10  H    0.130073
    11  H    0.130267
    12  H    0.147869
    13  H    0.110951
    14  H    0.109264
    15  H    0.344307
    16  H    0.116405
    17  H    0.095907
    18  H    0.325617
    19  H    0.345032
 Sum of Mulliken charges =  -0.00000

 Dipole moment (field-independent basis, Debye):
    X=             -1.9787    Y=              1.1582    Z=             -1.6788  Tot=              2.8417
  Exact polarizability:  62.687  -0.936  65.314  -2.222  -0.154  57.479
 Approx polarizability:  67.412  -3.418  73.490  -2.967   1.491  61.832
   1 Symmetry operations used in ECPInt.
 ECPInt:  NShTT=    2775 NPrTT=   11173 LenC2=    2754 LenP2D=    8776.
 LDataN:  DoStor=T MaxTD1= 6 Len=  172
 Calling FoFJK, ICntrl=    100127 FMM=F ISym2X=0 I1Cent= 0 IOpClX= 0 NMat=1 NMatS=1 NMatT=0.
 Full mass-weighted force constant matrix:
 Low frequencies ---  -15.1517   -9.8745   -5.2838   -0.0011    0.0006    0.0009
 Low frequencies ---   79.1642  122.0866  197.4267
 Diagonal vibrational polarizability:

                      1                      2                      3
                      A                      A                      A
 Frequencies --     79.1535               122.0706               197.4238
 Red. masses --      9.6606                 5.2000                 3.1205
 Frc consts  --      0.0357                 0.0457                 0.0717
 IR Inten    --      1.2983                 5.6505                 7.2785

                      4                      5                      6
                      A                      A                      A
 Frequencies --    215.5930               223.2531               254.1404
 Red. masses --      1.5479                 1.8337                 4.7510
 Frc consts  --      0.0424                 0.0538                 0.1808
 IR Inten    --      0.9668                 1.8224                 2.7280

                      7                      8                      9
                      A                      A                      A
 Frequencies --    273.3527               322.3652               362.7926
 Red. masses --      2.6366                 3.0513                 2.4292
 Frc consts  --      0.1161                 0.1868                 0.1884
 IR Inten    --      1.1007                 0.5616                 5.8773

                     10                     11                     12
                      A                      A                      A
 Frequencies --    394.1740               486.2537               552.7610
 Red. masses --      5.1157                 3.3727                 1.4397
 Frc consts  --      0.4683                 0.4698                 0.2592
 IR Inten    --      0.7341                12.0603               120.7838

                     13                     14                     15
                      A                      A                      A
 Frequencies --    584.2039               604.0413               642.2028
 Red. masses --      2.8116                 2.5581                 1.3166
 Frc consts  --      0.5654                 0.5499                 0.3199
 IR Inten    --     54.0287                99.9677                86.4283

                     16                     17                     18
                      A                      A                      A
 Frequencies --    750.8464               768.2580               821.2229
 Red. masses --      1.7090                 1.9542                 3.1393
 Frc consts  --      0.5677                 0.6796                 1.2474
 IR Inten    --    141.9101                55.5370                19.8136

                     19                     20                     21
                      A                      A                      A
 Frequencies --    895.5031               939.2636               991.8075
 Red. masses --      2.0710                 1.6365                 1.3979
 Frc consts  --      0.9785                 0.8506                 0.8102
 IR Inten    --     24.2768                13.4993                 5.9960

                     22                     23                     24
                      A                      A                      A
 Frequencies --   1031.7504              1129.9477              1152.5673
 Red. masses --      1.4240                 5.5742                 5.0843
 Frc consts  --      0.8931                 4.1932                 3.9794
 IR Inten    --      1.8998                73.2085                30.1842

                     25                     26                     27
                      A                      A                      A
 Frequencies --   1175.0657              1186.0486              1220.6181
 Red. masses --      1.7958                 2.5872                 2.1415
 Frc consts  --      1.4610                 2.1443                 1.8799
 IR Inten    --     81.5642               118.3705                31.8019

                     28                     29                     30
                      A                      A                      A
 Frequencies --   1240.0678              1294.7098              1318.0667
 Red. masses --      1.4178                 1.8746                 1.5313
 Frc consts  --      1.2846                 1.8515                 1.5675
 IR Inten    --    113.9022                13.3931                 9.9695

                     31                     32                     33
                      A                      A                      A
 Frequencies --   1380.5114              1411.8369              1422.2008
 Red. masses --      1.3317                 1.3518                 1.5103
 Frc consts  --      1.4953                 1.5875                 1.7998
 IR Inten    --     15.1969                 8.6485                 6.6539

                     34                     35                     36
                      A                      A                      A
 Frequencies --   1431.9664              1456.4272              1485.8607
 Red. masses --      1.6313                 1.3308                 1.1232
 Frc consts  --      1.9709                 1.6632                 1.4610
 IR Inten    --     83.6397                 8.1397                41.7774

                     37                     38                     39
                      A                      A                      A
 Frequencies --   1490.7990              1501.1169              1502.8324
 Red. masses --      1.1900                 1.1105                 1.0999
 Frc consts  --      1.5582                 1.4744                 1.4636
 IR Inten    --     81.1332                34.4341                16.4258

                     40                     41                     42
                      A                      A                      A
 Frequencies --   1519.0012              1867.8545              2977.4148
 Red. masses --      1.1191                10.0880                 1.0721
 Frc consts  --      1.5214                20.7367                 5.5997
 IR Inten    --     15.2811               294.8468                62.2985

                     43                     44                     45
                      A                      A                      A
 Frequencies --   3027.1314              3039.8204              3110.6494
 Red. masses --      1.0660                 1.0387                 1.1010
 Frc consts  --      5.7552                 5.6552                 6.2769
 IR Inten    --     38.8880                24.7680                18.3134

                     46                     47                     48
                      A                      A                      A
 Frequencies --   3112.3149              3128.1431              3152.3522
 Red. masses --      1.0988                 1.1049                 1.1046
 Frc consts  --      6.2711                 6.3704                 6.4673
 IR Inten    --     24.0579                17.5954                 7.6698

                     49                     50                     51
                      A                      A                      A
 Frequencies --   3626.9429              3675.5139              3693.5279
 Red. masses --      1.0660                 1.0648                 1.0640
 Frc consts  --      8.2624                 8.4752                 8.5524
 IR Inten    --    158.3807               128.7825                80.5493

 Optimization completed.
    -- Stationary point found.

 1\1\GINC-C041\Freq\RwB97XD\def2SVPP\C5H10O4\PETERCHAO1\06-Feb-2023\0\\
 #T Geom=AllCheck Guess=TCheck SCRF=Check GenChk RwB97XD/def2SVPP Freq\
 \Monomer\\0,1\C,0.8503775438,-1.4551747564,-1.3791384498\C,0.068819419
 9,-0.5332962262,-0.4360934738\C,-1.150453907,0.0514157991,-1.175521003
 4\O,-1.9409012297,0.8954217687,-0.372457922\C,-0.3931330573,-1.3232614
 587,0.8127022782\O,-0.9704897535,-0.5099657676,1.7873382929\C,0.939098
 0017,0.6192492824,0.0407511701\O,2.096135391,0.2205084681,0.5701859166
 \O,0.6408890064,1.7889828147,-0.0317088974\H,1.1887703381,-0.915119254

 Normal termination of Gaussian 16 at Mon Feb  6 10:26:52 2023.
