 Gaussian 16, Revision B.01,
 Gaussian 16:  ES64L-G16RevB.01 20-Dec-2017

 ----------------------------------------------------------------------
 #T wB97XD/def2svpp opt=tight freq int(grid=ultrafine) scf=(verytight,q
 c)
 ----------------------------------------------------------------------
 -------
 comment
 -------
 Symbolic Z-matrix:
 Charge =  1 Multiplicity = 2

 SCF Done:  E(UwB97XD) =  -154.470064701     a.u. after    8 cycles
 SCF Done:  E(UwB97XD) =  -154.477401551     a.u. after    8 cycles
 SCF Done:  E(UwB97XD) =  -154.478581012     a.u. after    7 cycles
 SCF Done:  E(UwB97XD) =  -154.479168560     a.u. after    7 cycles
 SCF Done:  E(UwB97XD) =  -154.479313560     a.u. after    4 cycles
 SCF Done:  E(UwB97XD) =  -154.479491585     a.u. after    5 cycles
 SCF Done:  E(UwB97XD) =  -154.479492437     a.u. after    9 cycles
 SCF Done:  E(UwB97XD) =  -154.480096729     a.u. after    6 cycles
 SCF Done:  E(UwB97XD) =  -154.481959871     a.u. after   26 cycles
 SCF Done:  E(UwB97XD) =  -154.482128860     a.u. after    5 cycles
 SCF Done:  E(UwB97XD) =  -154.482951315     a.u. after    4 cycles
 SCF Done:  E(UwB97XD) =  -154.482956046     a.u. after    3 cycles
 SCF Done:  E(UwB97XD) =  -154.482956481     a.u. after    2 cycles
 SCF Done:  E(UwB97XD) =  -154.482956567     a.u. after    2 cycles
 SCF Done:  E(UwB97XD) =  -154.482956637     a.u. after    2 cycles
 SCF Done:  E(UwB97XD) =  -154.482956648     a.u. after    2 cycles
 SCF Done:  E(UwB97XD) =  -154.482956649     a.u. after    2 cycles
 SCF Done:  E(UwB97XD) =  -154.482956649     a.u. after    2 cycles
 SCF Done:  E(UwB97XD) =  -154.482956650     a.u. after    2 cycles
 Optimization completed.
    -- Stationary point found.
 Normal termination of Gaussian 16 at Mon Jul 10 19:22:16 2023.

 ---------------------------------------------------------------------
 #T Geom=AllCheck Guess=TCheck SCRF=Check GenChk UwB97XD/def2SVPP Freq
 ---------------------------------------------------------------------
 Structure from the checkpoint file:  "8.chk"
 -------
 comment
 -------
 Charge =  1 Multiplicity = 2

                         Standard orientation:
 ---------------------------------------------------------------------
 Center     Atomic      Atomic             Coordinates (Angstroms)
 Number     Number       Type             X           Y           Z
 ---------------------------------------------------------------------
      1          6           0       -1.285840   -0.248572    0.006880
      2          6           0        0.200854    0.586515    0.026086
      3          8           0        1.155250   -0.324500   -0.126892
      4          1           0       -1.998897    0.589618    0.056459
      5          1           0       -1.282940   -0.884412    0.903533
      6          1           0       -1.322029   -0.808535   -0.937175
      7          1           0        0.207167    1.132985    0.983832
      8          1           0        0.099477    1.179225   -0.900560
      9          1           0        1.565140   -0.640542    0.711252
 ---------------------------------------------------------------------

 SCF Done:  E(UwB97XD) =  -154.482956650     a.u. after    1 cycles

 The electronic state is 2-A.
 Alpha  occ. eigenvalues --  -19.61567 -10.63459 -10.56541  -1.47251  -1.10723
 Alpha  occ. eigenvalues --   -1.00223  -0.90886  -0.84707  -0.81183  -0.74847
 Alpha  occ. eigenvalues --   -0.73176  -0.69785  -0.65282
 Alpha virt. eigenvalues --   -0.10343  -0.04985  -0.04517  -0.00241   0.00415
 Alpha virt. eigenvalues --    0.01993   0.02797   0.06957   0.29188   0.30221
 Alpha virt. eigenvalues --    0.32528   0.34462   0.37387   0.40351   0.47469

  Beta  occ. eigenvalues --  -19.60350 -10.63250 -10.56054  -1.44390  -1.08303
  Beta  occ. eigenvalues --   -0.98591  -0.89540  -0.83028  -0.74438  -0.73855
  Beta  occ. eigenvalues --   -0.72040  -0.68887
  Beta virt. eigenvalues --   -0.37319  -0.09891  -0.04223  -0.01877   0.00276
  Beta virt. eigenvalues --    0.01035   0.02499   0.03203   0.07703   0.29615
  Beta virt. eigenvalues --    0.31067   0.33626   0.35328   0.38877   0.40958

 Mulliken charges and spin densities:
               1          2
     1  C   -0.328028   0.342027
     2  C   -0.123083   0.133156
     3  O   -0.181073   0.479129
     4  H    0.243559   0.013110
     5  H    0.225325  -0.000779
     6  H    0.241732  -0.008842
     7  H    0.240785   0.015645
     8  H    0.258574   0.042680
     9  H    0.422209  -0.016127
 Sum of Mulliken charges =   1.00000   1.00000

 Dipole moment (field-independent basis, Debye):
    X=             -0.0622    Y=              0.4512    Z=              1.6591  Tot=              1.7205
  Exact polarizability:  37.154  -2.173  23.040   0.321  -0.594  21.466
 Approx polarizability:  34.088  -3.435  23.705  -0.235  -0.400  22.322
                          Isotropic Fermi Contact Couplings
        Atom                 a.u.       MegaHertz       Gauss      10(-4) cm-1
     1  C(13)              0.08469      95.20706      33.97225      31.75766
     2  C(13)             -0.02238     -25.15775      -8.97691      -8.39172
     3  O(17)              0.19406    -117.63852     -41.97635     -39.23999
     4  H(1)               0.00514      22.97025       8.19636       7.66205
     5  H(1)              -0.00076      -3.39663      -1.21200      -1.13300
     6  H(1)              -0.00368     -16.45381      -5.87113      -5.48840

                      1                      2                      3
                      A                      A                      A
 Frequencies --    248.1556               301.7034               369.5418
 Red. masses --      1.1296                 2.3850                 1.6744
 Frc consts  --      0.0410                 0.1279                 0.1347
 IR Inten    --      1.8940                 8.8031               174.9972

                      4                      5                      6
                      A                      A                      A
 Frequencies --    562.1860               868.4006               892.4270
 Red. masses --      5.1233                 1.0755                 1.1313
 Frc consts  --      0.9540                 0.4778                 0.5309
 IR Inten    --     32.9192                 0.6793                 3.9489

                      7                      8                      9
                      A                      A                      A
 Frequencies --    958.2354              1136.1632              1136.5394
 Red. masses --      1.1808                 1.0571                 1.3584
 Frc consts  --      0.6388                 0.8040                 1.0339
 IR Inten    --     43.1985               127.3520                23.0284

                     10                     11                     12
                      A                      A                      A
 Frequencies --   1288.1457              1330.8119              1363.3202
 Red. masses --      1.5172                 1.5580                 1.2480
 Frc consts  --      1.4832                 1.6257                 1.3667
 IR Inten    --     11.7042                63.7704                32.0789

                     13                     14                     15
                      A                      A                      A
 Frequencies --   1412.8495              1445.4769              1514.5221
 Red. masses --      1.0887                 1.0768                 1.2396
 Frc consts  --      1.2804                 1.3256                 1.6752
 IR Inten    --     19.6024                13.6725                 0.8239

                     16                     17                     18
                      A                      A                      A
 Frequencies --   3053.9599              3067.2503              3168.0673
 Red. masses --      1.0473                 1.0238                 1.1179
 Frc consts  --      5.7549                 5.6750                 6.6105
 IR Inten    --     21.0208                11.0214                17.1027

                     19                     20                     21
                      A                      A                      A
 Frequencies --   3217.9799              3245.2775              3554.6833
 Red. masses --      1.1132                 1.1165                 1.0690
 Frc consts  --      6.7921                 6.9283                 7.9584
 IR Inten    --     20.0551                16.1274               341.4621

                           ! Non-Optimized Parameters !
 Normal termination of Gaussian 16 at Mon Jul 10 19:22:32 2023.
