 Gaussian 16, Revision B.01,
 Gaussian 16:  ES64L-G16RevB.01 20-Dec-2017

 ----------------------------------------------------------------------
 #T wB97XD/def2svpp opt=tight freq int(grid=ultrafine) scf=(verytight,q
 c) Volume=tight
 ----------------------------------------------------------------------
 -----
 Dimer
 -----
 Symbolic Z-matrix:
 Charge =  0 Multiplicity = 1

 SCF Done:  E(RwB97XD) =  -536.237031508     a.u. after    8 cycles
 SCF Done:  E(RwB97XD) =  -536.239070438     a.u. after    5 cycles
 SCF Done:  E(RwB97XD) =  -536.239173646     a.u. after    4 cycles
 SCF Done:  E(RwB97XD) =  -536.239205302     a.u. after    5 cycles
 SCF Done:  E(RwB97XD) =  -536.239226161     a.u. after    4 cycles
 SCF Done:  E(RwB97XD) =  -536.239244300     a.u. after    3 cycles
 SCF Done:  E(RwB97XD) =  -536.239256574     a.u. after    3 cycles
 SCF Done:  E(RwB97XD) =  -536.239258184     a.u. after    2 cycles
 SCF Done:  E(RwB97XD) =  -536.239258865     a.u. after    2 cycles
 SCF Done:  E(RwB97XD) =  -536.239259032     a.u. after    2 cycles
 SCF Done:  E(RwB97XD) =  -536.239259034     a.u. after    2 cycles
 SCF Done:  E(RwB97XD) =  -536.239259035     a.u. after    2 cycles
 SCF Done:  E(RwB97XD) =  -536.239259035     a.u. after    2 cycles
 SCF Done:  E(RwB97XD) =  -536.239259036     a.u. after    2 cycles
 SCF Done:  E(RwB97XD) =  -536.239259036     a.u. after    2 cycles
 SCF Done:  E(RwB97XD) =  -536.239259036     a.u. after    2 cycles
 Optimization completed.
    -- Stationary point found.

 1\1\GINC-C163\FOpt\RwB97XD\def2SVPP\C6H12O4\PETERCHAO1\05-Feb-2023\0\\
 #T wB97XD/def2svpp opt=tight freq int(grid=ultrafine) scf=(verytight,q
 c) Volume=tight\\Dimer\\0,1\C,-4.1975549302,0.7144942023,0.001964875\C
 ,-3.3631289354,-0.5574425637,0.0015094132\C,-1.8746533955,-0.309739456
 ,0.0017308291\O,-1.1626148236,-1.4069084809,0.0014634661\O,-1.39276008
 05,0.8140930566,0.0021152392\H,-5.2719160956,0.4674898423,0.0017561242
 \H,-3.9824304456,1.3304188512,-0.8861285015\H,-3.9826064601,1.32966984
 44,0.8906205815\H,-3.585570534,-1.1898235549,-0.8764257254\H,-3.585722

 Normal termination of Gaussian 16 at Sun Feb  5 15:33:31 2023.

 ---------------------------------------------------------------------
 #T Geom=AllCheck Guess=TCheck SCRF=Check GenChk RwB97XD/def2SVPP Freq
 ---------------------------------------------------------------------
 Structure from the checkpoint file:  "12.chk"
 -----
 Dimer
 -----
 Charge =  0 Multiplicity = 1

                         Standard orientation:
 ---------------------------------------------------------------------
 Center     Atomic      Atomic             Coordinates (Angstroms)
 Number     Number       Type             X           Y           Z
 ---------------------------------------------------------------------
      1          6           0        4.206564   -0.659438    0.000043
      2          6           0        3.355559    0.601466   -0.000052
      3          6           0        1.870453    0.334299   -0.000012
      4          8           0        1.144113    1.422053    0.000032
      5          8           0        1.403313   -0.795746   -0.000028
      6          1           0        5.277600   -0.398390   -0.000013
      7          1           0        3.999577   -1.277834   -0.888267
      8          1           0        3.999631   -1.277666    0.888482
      9          1           0        3.569758    1.236993   -0.877766
     10          1           0        3.569789    1.237158    0.877531
     11          1           0        0.159823    1.198169    0.000030
     12          6           0       -4.206562    0.659443   -0.000017
     13          6           0       -3.355560   -0.601464    0.000008
     14          6           0       -1.870454   -0.334300    0.000008
     15          8           0       -1.144116   -1.422056   -0.000007
     16          8           0       -1.403310    0.795743    0.000026
     17          1           0       -5.277598    0.398398   -0.000015
     18          1           0       -3.999599    1.277738   -0.888403
     19          1           0       -3.999603    1.277771    0.888346
     20          1           0       -3.569775   -1.237092   -0.877626
     21          1           0       -3.569778   -1.237054    0.877670
     22          1           0       -0.159827   -1.198174   -0.000013
 ---------------------------------------------------------------------

 SCF Done:  E(RwB97XD) =  -536.239259036     a.u. after    1 cycles

 The electronic state is 1-A.
 Alpha  occ. eigenvalues --  -19.28907 -19.28906 -19.25990 -19.25988 -10.44042
 Alpha  occ. eigenvalues --  -10.44041 -10.31090 -10.31090 -10.28991 -10.28990
 Alpha  occ. eigenvalues --   -1.21150  -1.19869  -1.11722  -1.10289  -0.88571
 Alpha  occ. eigenvalues --   -0.88079  -0.77353  -0.76140  -0.68565  -0.68068
 Alpha  occ. eigenvalues --   -0.61900  -0.59192  -0.57960  -0.57764  -0.57602
 Alpha  occ. eigenvalues --   -0.56764  -0.51311  -0.51286  -0.50827  -0.48847
 Alpha  occ. eigenvalues --   -0.46822  -0.46420  -0.45205  -0.44330  -0.43731
 Alpha  occ. eigenvalues --   -0.43640  -0.41583  -0.40542  -0.38318  -0.36970
 Alpha virt. eigenvalues --    0.07878   0.08326   0.14102   0.14353   0.19073
 Alpha virt. eigenvalues --    0.19153   0.19795   0.19828   0.20754   0.21273
 Alpha virt. eigenvalues --    0.23808   0.24504   0.24557   0.25302   0.29745

 Mulliken charges:
               1
     1  C   -0.312294
     2  C   -0.271464
     3  C    0.244278
     4  O   -0.361026
     5  O   -0.331540
     6  H    0.123923
     7  H    0.131559
     8  H    0.131556
     9  H    0.147125
    10  H    0.147123
    11  H    0.350759
    12  C   -0.312294
    13  C   -0.271464
    14  C    0.244278
    15  O   -0.361026
    16  O   -0.331540
    17  H    0.123923
    18  H    0.131557
    19  H    0.131558
    20  H    0.147124
    21  H    0.147125
    22  H    0.350760
 Sum of Mulliken charges =   0.00000

 Dipole moment (field-independent basis, Debye):
    X=             -0.0000    Y=              0.0000    Z=             -0.0001  Tot=              0.0001
  Exact polarizability:  95.077   2.313  75.126  -0.000   0.000  54.944
 Approx polarizability:  79.570   4.332  90.719  -0.000   0.000  61.230
   1 Symmetry operations used in ECPInt.
 ECPInt:  NShTT=    3570 NPrTT=   14362 LenC2=    3398 LenP2D=    9895.
 LDataN:  DoStor=T MaxTD1= 6 Len=  172
 Calling FoFJK, ICntrl=    100127 FMM=F ISym2X=0 I1Cent= 0 IOpClX= 0 NMat=1 NMatS=1 NMatT=0.
 Full mass-weighted force constant matrix:
 Low frequencies ---   -6.9988   -0.0012   -0.0009    0.0007    5.4231    5.5966
 Low frequencies ---   27.9595   44.5328   52.7765
 Diagonal vibrational polarizability:

                      1                      2                      3
                      A                      A                      A
 Frequencies --     27.9595                44.3461                52.7765
 Red. masses --      2.4189                 2.4770                 2.4135
 Frc consts  --      0.0011                 0.0029                 0.0040
 IR Inten    --      0.0707                 0.0000                 3.9713

                      4                      5                      6
                      A                      A                      A
 Frequencies --     79.0175               114.9977               119.7416
 Red. masses --      9.3709                 3.9187                 3.5398
 Frc consts  --      0.0345                 0.0305                 0.0299
 IR Inten    --      0.0008                 0.0000                 6.7074

                      7                      8                      9
                      A                      A                      A
 Frequencies --    133.2088               182.7679               233.6957
 Red. masses --      4.9816                 6.6618                 1.1169
 Frc consts  --      0.0521                 0.1311                 0.0359
 IR Inten    --      0.0000                 0.0000                 0.3473

                     10                     11                     12
                      A                      A                      A
 Frequencies --    237.0890               307.1901               332.3943
 Red. masses --      1.1574                 4.6577                 4.0250
 Frc consts  --      0.0383                 0.2590                 0.2620
 IR Inten    --      0.0000                 0.0000                64.9220

                     13                     14                     15
                      A                      A                      A
 Frequencies --    504.2651               537.0550               572.1334
 Red. masses --      4.5083                 5.0375                 1.9478
 Frc consts  --      0.6754                 0.8561                 0.3757
 IR Inten    --      0.0000                26.9633                 0.0743

                     16                     17                     18
                      A                      A                      A
 Frequencies --    582.3963               664.0110               670.0875
 Red. masses --      2.0568                 4.4621                 4.5098
 Frc consts  --      0.4110                 1.1592                 1.1931
 IR Inten    --      0.0000                 0.0000                41.1775

                     19                     20                     21
                      A                      A                      A
 Frequencies --    828.6095               829.0252               879.9410
 Red. masses --      1.4067                 1.4316                 3.0161
 Frc consts  --      0.5690                 0.5797                 1.3759
 IR Inten    --     18.6948                 0.0000                 0.0000

                     22                     23                     24
                      A                      A                      A
 Frequencies --    891.2601              1017.5913              1034.9891
 Red. masses --      3.2055                 1.0517                 1.5899
 Frc consts  --      1.5002                 0.6416                 1.0034
 IR Inten    --     24.4420                 0.0000                 0.0000

                     25                     26                     27
                      A                      A                      A
 Frequencies --   1035.9428              1057.9622              1120.9754
 Red. masses --      1.6324                 1.0917                 2.2886
 Frc consts  --      1.0321                 0.7200                 1.6944
 IR Inten    --      6.0112               225.9667                 0.0000

                     28                     29                     30
                      A                      A                      A
 Frequencies --   1121.1181              1122.5276              1123.0477
 Red. masses --      2.2783                 1.7689                 1.7661
 Frc consts  --      1.6872                 1.3133                 1.3124
 IR Inten    --     11.9275                 0.0000                 0.8374

                     31                     32                     33
                      A                      A                      A
 Frequencies --   1290.4567              1290.5694              1320.2893
 Red. masses --      1.1767                 1.1768                 2.1506
 Frc consts  --      1.1545                 1.1548                 2.2088
 IR Inten    --      0.0000                 0.3159                 0.0000

                     34                     35                     36
                      A                      A                      A
 Frequencies --   1322.3040              1415.1589              1421.2804
 Red. masses --      2.0029                 1.3404                 1.3608
 Frc consts  --      2.0634                 1.5816                 1.6195
 IR Inten    --    228.2715               189.1797                 0.0000

                     37                     38                     39
                      A                      A                      A
 Frequencies --   1430.3104              1439.3433              1457.2393
 Red. masses --      1.2851                 1.5635                 1.1244
 Frc consts  --      1.5489                 1.9085                 1.4068
 IR Inten    --      8.2843                 0.0000                32.1712

                     40                     41                     42
                      A                      A                      A
 Frequencies --   1457.3094              1489.6445              1491.0294
 Red. masses --      1.1540                 1.0961                 1.0347
 Frc consts  --      1.4440                 1.4331                 1.3553
 IR Inten    --      0.0000                 4.4048                 0.0000

                     43                     44                     45
                      A                      A                      A
 Frequencies --   1491.0561              1494.0781              1528.5403
 Red. masses --      1.0347                 1.0546                 2.5696
 Frc consts  --      1.3554                 1.3870                 3.5373
 IR Inten    --     19.0093                 0.0000               293.8128

                     46                     47                     48
                      A                      A                      A
 Frequencies --   1549.2057              1785.9873              1851.3854
 Red. masses --      2.0358                 6.0362                 9.8206
 Frc consts  --      2.8787                11.3440                19.8327
 IR Inten    --      0.0000                 0.0000               760.2738

                     49                     50                     51
                      A                      A                      A
 Frequencies --   2971.3857              3051.7560              3052.1529
 Red. masses --      1.0863                 1.0380                 1.0378
 Frc consts  --      5.6506                 5.6959                 5.6961
 IR Inten    --      0.0000               109.8652                 0.0000

                     52                     53                     54
                      A                      A                      A
 Frequencies --   3057.6644              3057.8870              3103.9490
 Red. masses --      1.0652                 1.0652                 1.0665
 Frc consts  --      5.8674                 5.8685                 6.0539
 IR Inten    --     15.0186                 0.0000              3971.6543

                     55                     56                     57
                      A                      A                      A
 Frequencies --   3107.1989              3107.2115              3147.2809
 Red. masses --      1.1025                 1.1025                 1.1056
 Frc consts  --      6.2714                 6.2714                 6.4526
 IR Inten    --      0.0001                 3.4406                 0.0000

                     58                     59                     60
                      A                      A                      A
 Frequencies --   3147.3629              3152.9606              3152.9831
 Red. masses --      1.1055                 1.1052                 1.1052
 Frc consts  --      6.4519                 6.4731                 6.4732
 IR Inten    --      7.9210                 0.0008                25.6021

                           ! Non-Optimized Parameters !

 1\1\GINC-C163\Freq\RwB97XD\def2SVPP\C6H12O4\PETERCHAO1\05-Feb-2023\0\\
 #T Geom=AllCheck Guess=TCheck SCRF=Check GenChk RwB97XD/def2SVPP Freq\
 \Dimer\\0,1\C,-4.1975549302,0.7144942023,0.001964875\C,-3.3631289354,-
 0.5574425637,0.0015094132\C,-1.8746533955,-0.309739456,0.0017308291\O,
 -1.1626148236,-1.4069084809,0.0014634661\O,-1.3927600805,0.8140930566,
 0.0021152392\H,-5.2719160956,0.4674898423,0.0017561242\H,-3.9824304456
 ,1.3304188512,-0.8861285015\H,-3.9826064601,1.3296698444,0.8906205815\
 H,-3.585570534,-1.1898235549,-0.8764257254\H,-3.5857221964,-1.19056281

 Normal termination of Gaussian 16 at Sun Feb  5 15:36:00 2023.
