 Gaussian 16, Revision B.01,
 Gaussian 16:  ES64L-G16RevB.01 20-Dec-2017

 ----------------------------------------------------------------------
 #T wB97XD/def2svpp opt=tight freq int(grid=ultrafine) scf=(verytight,q
 c)
 ----------------------------------------------------------------------
 --------------
 Comment gs min
 --------------
 Symbolic Z-matrix:
 Charge =  0 Multiplicity = 1

 SCF Done:  E(RwB97XD) =  -363.812105575     a.u. after    7 cycles
 SCF Done:  E(RwB97XD) =  -363.817029401     a.u. after    9 cycles
 SCF Done:  E(RwB97XD) =  -363.818267491     a.u. after    9 cycles
 SCF Done:  E(RwB97XD) =  -363.818127201     a.u. after    9 cycles
 SCF Done:  E(RwB97XD) =  -363.818844247     a.u. after    7 cycles
 SCF Done:  E(RwB97XD) =  -363.819042570     a.u. after    7 cycles
 SCF Done:  E(RwB97XD) =  -363.819275244     a.u. after    9 cycles
 SCF Done:  E(RwB97XD) =  -363.819377122     a.u. after    7 cycles
 SCF Done:  E(RwB97XD) =  -363.819408815     a.u. after    7 cycles
 SCF Done:  E(RwB97XD) =  -363.819529909     a.u. after    5 cycles
 SCF Done:  E(RwB97XD) =  -363.819010643     a.u. after    9 cycles
 SCF Done:  E(RwB97XD) =  -363.820994870     a.u. after    3 cycles
 SCF Done:  E(RwB97XD) =  -363.821070653     a.u. after    5 cycles
 SCF Done:  E(RwB97XD) =  -363.821143030     a.u. after    5 cycles
 SCF Done:  E(RwB97XD) =  -363.821158217     a.u. after    4 cycles
 SCF Done:  E(RwB97XD) =  -363.821160968     a.u. after    3 cycles
 SCF Done:  E(RwB97XD) =  -363.821161519     a.u. after    2 cycles
 SCF Done:  E(RwB97XD) =  -363.821161540     a.u. after    2 cycles
 SCF Done:  E(RwB97XD) =  -363.821161541     a.u. after    2 cycles
 Optimization completed.
    -- Stationary point found.
 Normal termination of Gaussian 16 at Thu Aug  4 16:26:20 2022.

 ---------------------------------------------------------------------
 #T Geom=AllCheck Guess=TCheck SCRF=Check GenChk RwB97XD/def2SVPP Freq
 ---------------------------------------------------------------------
 Structure from the checkpoint file:  "/scratch/user/peterchao1/peterchao1/6097803_1659647584000000894362978/Gau-7177.chk"
 --------------
 Comment gs min
 --------------
 Charge =  0 Multiplicity = 1

                         Standard orientation:
 ---------------------------------------------------------------------
 Center     Atomic      Atomic             Coordinates (Angstroms)
 Number     Number       Type             X           Y           Z
 ---------------------------------------------------------------------
      1          6           0       -0.568488    1.734516   -0.309191
      2          6           0        0.023094    0.358549    0.006619
      3          7           0        0.099680    0.074760    1.442535
      4          6           0       -0.825186   -0.749511   -0.620669
      5          8           0       -2.085280   -0.766195    0.012598
      6          6           0        1.465649    0.246276   -0.526964
      7          8           0        2.070536   -0.926997   -0.078321
      8          1           0       -1.616621    1.788842    0.028680
      9          1           0       -0.544275    1.940819   -1.394472
     10          1           0        0.006108    2.530732    0.197884
     11          1           0       -0.819018   -0.211902    1.782475
     12          1           0        0.386066    0.903371    1.964374
     13          1           0       -0.293868   -1.710091   -0.488282
     14          1           0       -0.923949   -0.553915   -1.707585
     15          1           0       -2.562906   -1.560886   -0.253591
     16          1           0        2.027670    1.149213   -0.196867
     17          1           0        1.471808    0.245416   -1.631621
     18          1           0        1.718767   -1.038355    0.828278
 ---------------------------------------------------------------------

 SCF Done:  E(RwB97XD) =  -363.821161541     a.u. after    1 cycles

 The electronic state is 1-A.
 Alpha  occ. eigenvalues --  -19.26041 -19.22544 -14.42384 -10.33764 -10.33008
 Alpha  occ. eigenvalues --  -10.32567 -10.28343  -1.12348  -1.09813  -0.98393
 Alpha  occ. eigenvalues --   -0.85225  -0.77629  -0.75225  -0.65632  -0.62322
 Alpha  occ. eigenvalues --   -0.59334  -0.56690  -0.55423  -0.51984  -0.50938
 Alpha  occ. eigenvalues --   -0.48513  -0.47821  -0.47023  -0.45421  -0.41214
 Alpha  occ. eigenvalues --   -0.39181  -0.36525  -0.33986  -0.32874
 Alpha virt. eigenvalues --    0.12224   0.14392   0.17222   0.18464   0.19660
 Alpha virt. eigenvalues --    0.20777   0.20997   0.23083   0.23457   0.25871
 Alpha virt. eigenvalues --    0.26287   0.28798   0.29847   0.31192   0.32050

 Mulliken charges:
               1
     1  C   -0.266532
     2  C   -0.214026
     3  N   -0.526391
     4  C    0.056972
     5  O   -0.491213
     6  C    0.104513
     7  O   -0.496022
     8  H    0.134114
     9  H    0.110925
    10  H    0.109921
    11  H    0.243776
    12  H    0.224813
    13  H    0.103802
    14  H    0.089533
    15  H    0.325137
    16  H    0.077413
    17  H    0.093241
    18  H    0.320024
 Sum of Mulliken charges =   0.00000

 Dipole moment (field-independent basis, Debye):
    X=             -2.2703    Y=              0.5699    Z=              0.1444  Tot=              2.3452
  Exact polarizability:  56.331   1.792  56.364  -0.444  -0.011  54.213
 Approx polarizability:  57.720   1.209  58.109  -1.116  -0.156  59.124
   1 Symmetry operations used in ECPInt.
 ECPInt:  NShTT=    2080 NPrTT=    8380 LenC2=    2072 LenP2D=    6819.
 LDataN:  DoStor=T MaxTD1= 6 Len=  172
 Calling FoFJK, ICntrl=    100127 FMM=F ISym2X=0 I1Cent= 0 IOpClX= 0 NMat=1 NMatS=1 NMatT=0.
 Full mass-weighted force constant matrix:
 Low frequencies ---   -1.4986   -0.0000    0.0006    0.0010    4.7053   10.6745
 Low frequencies ---  138.2510  163.4353  237.8505
 Diagonal vibrational polarizability:

                      1                      2                      3
                      A                      A                      A
 Frequencies --    138.2368               163.4231               237.8431
 Red. masses --      3.2348                 3.3965                 1.8470
 Frc consts  --      0.0364                 0.0534                 0.0616
 IR Inten    --      2.7210                15.5290                 2.9931

                      4                      5                      6
                      A                      A                      A
 Frequencies --    271.1247               272.5063               284.2755
 Red. masses --      1.3159                 1.3381                 2.1968
 Frc consts  --      0.0570                 0.0585                 0.1046
 IR Inten    --      8.9973                96.3519                15.0738

                      7                      8                      9
                      A                      A                      A
 Frequencies --    352.4370               382.5583               398.8690
 Red. masses --      1.2793                 2.6713                 2.0577
 Frc consts  --      0.0936                 0.2303                 0.1929
 IR Inten    --     13.3909                 3.2316                 5.9330

                     10                     11                     12
                      A                      A                      A
 Frequencies --    427.3039               511.9785               619.6699
 Red. masses --      2.0863                 3.0661                 2.4943
 Frc consts  --      0.2244                 0.4735                 0.5643
 IR Inten    --      1.6353                 3.7224                13.8814

                     13                     14                     15
                      A                      A                      A
 Frequencies --    699.7353               787.9487               913.2864
 Red. masses --      1.2505                 3.3303                 1.5758
 Frc consts  --      0.3607                 1.2182                 0.7744
 IR Inten    --    172.2499                 7.2283                69.8447

                     16                     17                     18
                      A                      A                      A
 Frequencies --    923.3766               965.4426               977.2572
 Red. masses --      1.5919                 1.5802                 1.5681
 Frc consts  --      0.7997                 0.8678                 0.8823
 IR Inten    --    100.2171                 2.7572                 2.2019

                     19                     20                     21
                      A                      A                      A
 Frequencies --   1029.5555              1108.8047              1141.7679
 Red. masses --      1.4667                 1.6148                 3.9481
 Frc consts  --      0.9160                 1.1697                 3.0324
 IR Inten    --      9.4890                11.2989                55.2665

                     22                     23                     24
                      A                      A                      A
 Frequencies --   1159.2138              1189.7602              1223.4538
 Red. masses --      3.0418                 1.6146                 1.5055
 Frc consts  --      2.4083                 1.3466                 1.3277
 IR Inten    --    135.8059                23.6706                58.4412

                     25                     26                     27
                      A                      A                      A
 Frequencies --   1250.6929              1305.5875              1338.9381
 Red. masses --      1.3235                 1.4746                 1.7142
 Frc consts  --      1.2198                 1.4809                 1.8106
 IR Inten    --      9.0674                 9.3924                16.9660

                     28                     29                     30
                      A                      A                      A
 Frequencies --   1362.2190              1392.3436              1416.6947
 Red. masses --      1.6061                 1.2877                 1.4309
 Frc consts  --      1.7560                 1.4709                 1.6921
 IR Inten    --      8.2772                 6.2756                13.4575

                     31                     32                     33
                      A                      A                      A
 Frequencies --   1467.6592              1480.4632              1487.0135
 Red. masses --      1.3098                 1.3312                 1.0751
 Frc consts  --      1.6623                 1.7191                 1.4006
 IR Inten    --     28.1195                83.5929                 6.5544

                     34                     35                     36
                      A                      A                      A
 Frequencies --   1503.5708              1520.0348              1529.0223
 Red. masses --      1.2088                 1.1013                 1.0893
 Frc consts  --      1.6101                 1.4993                 1.5004
 IR Inten    --      6.1537                 3.5442                 4.3483

                     37                     38                     39
                      A                      A                      A
 Frequencies --   1660.5879              2961.6499              3009.4763
 Red. masses --      1.1002                 1.0725                 1.0625
 Frc consts  --      1.7874                 5.5425                 5.6698
 IR Inten    --     49.7105                79.4613                41.5210

                     40                     41                     42
                      A                      A                      A
 Frequencies --   3026.9641              3079.1456              3084.2852
 Red. masses --      1.0385                 1.1042                 1.0958
 Frc consts  --      5.6060                 6.1684                 6.1415
 IR Inten    --     21.0550                22.4896                41.1169

                     43                     44                     45
                      A                      A                      A
 Frequencies --   3113.9941              3140.0330              3495.2906
 Red. masses --      1.1043                 1.1043                 1.0506
 Frc consts  --      6.3089                 6.4152                 7.5625
 IR Inten    --     29.1388                10.1562                10.6034

                     46                     47                     48
                      A                      A                      A
 Frequencies --   3577.1377              3579.1170              3802.0547
 Red. masses --      1.0662                 1.0912                 1.0667
 Frc consts  --      8.0379                 8.2361                 9.0855
 IR Inten    --    107.9878                12.5119                49.8723

 Optimization completed.
    -- Stationary point found.
 Normal termination of Gaussian 16 at Thu Aug  4 16:27:44 2022.
