 Gaussian 16, Revision B.01,
 Gaussian 16:  ES64L-G16RevB.01 20-Dec-2017

 ----------------------------------------------------------------------
 #T wB97XD/def2svpp opt=tight freq int(grid=ultrafine) scf=(verytight,q
 c) Volume=tight
 ----------------------------------------------------------------------
 -------
 Monomer
 -------
 Symbolic Z-matrix:
 Charge =  0 Multiplicity = 1

 SCF Done:  E(RwB97XD) =  -307.370994917     a.u. after    8 cycles
 SCF Done:  E(RwB97XD) =  -307.372439479     a.u. after    6 cycles
 SCF Done:  E(RwB97XD) =  -307.371831201     a.u. after   11 cycles
 SCF Done:  E(RwB97XD) =  -307.372639875     a.u. after    8 cycles
 SCF Done:  E(RwB97XD) =  -307.372736041     a.u. after    9 cycles
 SCF Done:  E(RwB97XD) =  -307.372933848     a.u. after   15 cycles
 SCF Done:  E(RwB97XD) =  -307.372969971     a.u. after    9 cycles
 SCF Done:  E(RwB97XD) =  -307.373007245     a.u. after    9 cycles
 SCF Done:  E(RwB97XD) =  -307.373015691     a.u. after    5 cycles
 SCF Done:  E(RwB97XD) =  -307.373016156     a.u. after    3 cycles
 SCF Done:  E(RwB97XD) =  -307.373016183     a.u. after    2 cycles
 SCF Done:  E(RwB97XD) =  -307.373016185     a.u. after    2 cycles
 SCF Done:  E(RwB97XD) =  -307.373016186     a.u. after    2 cycles
 Optimization completed.
    -- Stationary point found.
 Normal termination of Gaussian 16 at Fri Mar 29 15:38:58 2024.

 ---------------------------------------------------------------------
 #T Geom=AllCheck Guess=TCheck SCRF=Check GenChk RwB97XD/def2SVPP Freq
 ---------------------------------------------------------------------
 Structure from the checkpoint file:  "monomer.chk"
 -------
 Monomer
 -------
 Charge =  0 Multiplicity = 1

                         Standard orientation:
 ---------------------------------------------------------------------
 Center     Atomic      Atomic             Coordinates (Angstroms)
 Number     Number       Type             X           Y           Z
 ---------------------------------------------------------------------
      1          6           0        1.109851    1.370125    0.425367
      2          6           0        0.644491    0.151004   -0.385063
      3          6           0        1.561666   -1.053393   -0.199936
      4          6           0       -0.786177   -0.200582   -0.024989
      5          8           0       -1.643273    0.783808   -0.348728
      6          8           0       -1.153738   -1.219350    0.496967
      7          1           0        0.457912    2.241054    0.251786
      8          1           0        2.138694    1.643961    0.136709
      9          1           0        1.109701    1.143683    1.506246
     10          1           0        0.628029    0.443469   -1.450860
     11          1           0        1.579256   -1.372249    0.855692
     12          1           0        2.590702   -0.798626   -0.505382
     13          1           0        1.222795   -1.913231   -0.800113
     14          1           0       -2.529994    0.493348   -0.072265
 ---------------------------------------------------------------------

 SCF Done:  E(RwB97XD) =  -307.373016186     a.u. after    1 cycles

 The electronic state is 1-A.
 Alpha  occ. eigenvalues --  -19.30274 -19.24558 -10.42797 -10.31631 -10.29437
 Alpha  occ. eigenvalues --  -10.28559  -1.20448  -1.10713  -0.90510  -0.78143
 Alpha  occ. eigenvalues --   -0.75646  -0.66397  -0.59624  -0.57278  -0.55576
 Alpha  occ. eigenvalues --   -0.52435  -0.50256  -0.48668  -0.47440  -0.44821
 Alpha  occ. eigenvalues --   -0.43328  -0.42653  -0.40816  -0.36025
 Alpha virt. eigenvalues --    0.08575   0.13410   0.15071   0.18141   0.19661
 Alpha virt. eigenvalues --    0.19994   0.22029   0.23935   0.24432   0.28375
 Alpha virt. eigenvalues --    0.29291   0.33100   0.37915   0.41154   0.47738

 Mulliken charges:
               1
     1  C   -0.314512
     2  C   -0.246531
     3  C   -0.282726
     4  C    0.215571
     5  O   -0.373002
     6  O   -0.234967
     7  H    0.141674
     8  H    0.129753
     9  H    0.123805
    10  H    0.127564
    11  H    0.127658
    12  H    0.118318
    13  H    0.131109
    14  H    0.336285
 Sum of Mulliken charges =  -0.00000

 Dipole moment (field-independent basis, Debye):
    X=              0.2656    Y=              1.4256    Z=             -0.5903  Tot=              1.5657
  Exact polarizability:  50.638  -0.125  49.290  -0.705  -1.918  39.334
 Approx polarizability:  48.995   0.823  53.842  -1.190  -5.469  44.403
   1 Symmetry operations used in ECPInt.
 ECPInt:  NShTT=    1378 NPrTT=    5562 LenC2=    1374 LenP2D=    4577.
 LDataN:  DoStor=T MaxTD1= 6 Len=  172
 Calling FoFJK, ICntrl=    100127 FMM=F ISym2X=0 I1Cent= 0 IOpClX= 0 NMat=1 NMatS=1 NMatT=0.
 Full mass-weighted force constant matrix:
 Low frequencies ---   -8.7258   -4.8627   -0.0015   -0.0014   -0.0014    8.5927
 Low frequencies ---   38.3141  223.7677  240.0942
 Diagonal vibrational polarizability:

                      1                      2                      3
                      A                      A                      A
 Frequencies --     38.2660               223.7673               240.0936
 Red. masses --      4.9315                 1.0781                 1.2695
 Frc consts  --      0.0043                 0.0318                 0.0431
 IR Inten    --      0.4237                 0.0289                 0.1112

                      4                      5                      6
                      A                      A                      A
 Frequencies --    252.9990               315.1407               362.9061
 Red. masses --      2.6189                 2.2173                 2.4321
 Frc consts  --      0.0988                 0.1297                 0.1887
 IR Inten    --      0.8523                 2.0829                 1.8925

                      7                      8                      9
                      A                      A                      A
 Frequencies --    502.5146               604.5553               642.5962
 Red. masses --      3.6836                 2.4293                 1.4901
 Frc consts  --      0.5480                 0.5231                 0.3625
 IR Inten    --     17.1322                37.5819                69.8043

                     10                     11                     12
                      A                      A                      A
 Frequencies --    771.4751               808.1459               939.5415
 Red. masses --      3.4047                 2.5857                 2.0833
 Frc consts  --      1.1939                 0.9950                 1.0835
 IR Inten    --     45.0433                23.3024                 5.3848

                     13                     14                     15
                      A                      A                      A
 Frequencies --    950.7500               986.4958              1127.4570
 Red. masses --      1.1541                 1.3865                 1.5765
 Frc consts  --      0.6147                 0.7950                 1.1807
 IR Inten    --      1.4216                 3.0161                 9.7608

                     16                     17                     18
                      A                      A                      A
 Frequencies --   1158.5168              1198.5770              1230.2893
 Red. masses --      2.3362                 2.1527                 1.8697
 Frc consts  --      1.8474                 1.8221                 1.6674
 IR Inten    --     49.5952                85.3948               144.2774

                     19                     20                     21
                      A                      A                      A
 Frequencies --   1319.7741              1348.4097              1405.2500
 Red. masses --      1.4555                 1.4449                 1.3576
 Frc consts  --      1.4937                 1.5478                 1.5796
 IR Inten    --      1.5720                 1.4973                14.1216

                     22                     23                     24
                      A                      A                      A
 Frequencies --   1431.3016              1442.4432              1481.9063
 Red. masses --      1.2670                 2.1494                 1.0429
 Frc consts  --      1.5293                 2.6349                 1.3494
 IR Inten    --     12.7463                36.3132                 0.7857

                     25                     26                     27
                      A                      A                      A
 Frequencies --   1484.3607              1496.4091              1511.1897
 Red. masses --      1.0466                 1.0463                 1.1330
 Frc consts  --      1.3587                 1.3804                 1.5245
 IR Inten    --      4.6524                12.4285                32.9036

                     28                     29                     30
                      A                      A                      A
 Frequencies --   1902.6134              3038.1797              3045.6978
 Red. masses --     10.4261                 1.0378                 1.0378
 Frc consts  --     22.2368                 5.6443                 5.6722
 IR Inten    --    296.5832                18.6402                17.5849

                     31                     32                     33
                      A                      A                      A
 Frequencies --   3059.7465              3129.6236              3139.5039
 Red. masses --      1.0849                 1.1051                 1.1052
 Frc consts  --      5.9845                 6.3772                 6.4185
 IR Inten    --      8.8869                12.2390                19.2950

                     34                     35                     36
                      A                      A                      A
 Frequencies --   3148.2686              3150.6434              3700.6203
 Red. masses --      1.1049                 1.1051                 1.0640
 Frc consts  --      6.4524                 6.4633                 8.5853
 IR Inten    --     12.9389                11.2745                78.0252

 Optimization completed.
    -- Stationary point found.
 Normal termination of Gaussian 16 at Fri Mar 29 15:39:43 2024.
