 Gaussian 16, Revision B.01,
 Gaussian 16:  ES64L-G16RevB.01 20-Dec-2017

 --------------------------------------------------------------
 #T wB97XD//def2svpp Volume=tight Geom=AllCheckpoint Guess=Read
 --------------------------------------------------------------
 Structure from the checkpoint file:  "20.chk"
 -------
 Monomer
 -------
 Charge =  0 Multiplicity = 1

                         Standard orientation:
 ---------------------------------------------------------------------
 Center     Atomic      Atomic             Coordinates (Angstroms)
 Number     Number       Type             X           Y           Z
 ---------------------------------------------------------------------
      1          6           0       -0.577829   -0.870231    1.670744
      2          6           0       -0.167603   -0.017902    0.461251
      3          6           0        0.244866   -0.897420   -0.728413
      4         17           0        1.632751   -1.979322   -0.369420
      5          6           0       -1.330057    0.888919    0.018994
      6         17           0       -2.805731   -0.006797   -0.478556
      7          6           0        0.991744    0.882821    0.917501
      8         17           0        1.600685    2.005312   -0.349521
      9          1           0       -1.414692   -1.536457    1.405882
     10          1           0       -0.905291   -0.229247    2.507901
     11          1           0        0.262924   -1.493402    2.015035
     12          1           0        0.548287   -0.275498   -1.583128
     13          1           0       -0.591192   -1.542354   -1.031550
     14          1           0       -1.038217    1.515244   -0.835462
     15          1           0       -1.629506    1.546650    0.849359
     16          1           0        1.847582    0.263319    1.220583
     17          1           0        0.682391    1.508339    1.768362
 ---------------------------------------------------------------------

 SCF Done:  E(RwB97XD) =  -1575.91077843     A.U. after    1 cycles

 The electronic state is 1-A.
 Alpha  occ. eigenvalues -- -101.67375-101.67353-101.66859 -10.36462 -10.36419
 Alpha  occ. eigenvalues --  -10.35670 -10.35135 -10.30241  -9.58139  -9.58119
 Alpha  occ. eigenvalues --   -9.57623  -7.33518  -7.33504  -7.33004  -7.32562
 Alpha  occ. eigenvalues --   -7.32536  -7.32529  -7.32506  -7.32045  -7.32010
 Alpha  occ. eigenvalues --   -0.99873  -0.95477  -0.94849  -0.89009  -0.79258
 Alpha  occ. eigenvalues --   -0.77397  -0.76281  -0.64875  -0.59552  -0.58011
 Alpha  occ. eigenvalues --   -0.56677  -0.54455  -0.52385  -0.50172  -0.48768
 Alpha  occ. eigenvalues --   -0.48393  -0.46484  -0.45710  -0.45010  -0.40027
 Alpha  occ. eigenvalues --   -0.39042  -0.38848  -0.37862  -0.37652  -0.37264
 Alpha virt. eigenvalues --    0.10179   0.10721   0.11345   0.13850   0.16485
 Alpha virt. eigenvalues --    0.17482   0.17798   0.19157   0.19692   0.22026
 Alpha virt. eigenvalues --    0.23517   0.24626   0.25663   0.26633   0.28104

 Mulliken charges:
               1
     1  C   -0.278953
     2  C   -0.272213
     3  C   -0.124451
     4  Cl  -0.151603
     5  C   -0.130870
     6  Cl  -0.147569
     7  C   -0.132238
     8  Cl  -0.149848
     9  H    0.142534
    10  H    0.122627
    11  H    0.140110
    12  H    0.162863
    13  H    0.166654
    14  H    0.167483
    15  H    0.156877
    16  H    0.172327
    17  H    0.156270
 Sum of Mulliken charges =  -0.00000

 Dipole moment (field-independent basis, Debye):
    X=             -0.5631    Y=              0.6850    Z=              1.5218  Tot=              1.7613
 Evaluate density.
 Using the total density.
 Monte-Carlo method of calculating molar volume:
 based on  0.001 e/bohr**3 density envelope.
 Number of points per bohr**3 =  100 CutOff= 1.00D-04
 Using the SCF density.
 There are      2223 points.  Will hold      2223 in memory.
 LenV=  1048212180 MDV=  1048576000.
 Box volume =10993.756 fraction occupied=0.115
 Integrated density= 7.2446421209386330D+01 error=-1.7553578790613670D+01

 Normal termination of Gaussian 16 at Thu Feb  2 13:03:28 2023.
