 Gaussian 16, Revision B.01,
 Gaussian 16:  ES64L-G16RevB.01 20-Dec-2017

 ------------------------------------------------------------------
 #T wB97XD/def2svpp opt freq int(grid=ultrafine) scf=(verytight,qc)
 ------------------------------------------------------------------
 --------------
 Comment gs min
 --------------
 Symbolic Z-matrix:
 Charge =  0 Multiplicity = 1

 SCF Done:  E(RwB97XD) =  -1878.24193577     a.u. after    8 cycles
 SCF Done:  E(RwB97XD) =  -1878.24199140     a.u. after    3 cycles
 Optimization completed.
    -- Stationary point found.
 Normal termination of Gaussian 16 at Fri Aug  5 12:59:54 2022.

 ---------------------------------------------------------------------
 #T Geom=AllCheck Guess=TCheck SCRF=Check GenChk RwB97XD/def2SVPP Freq
 ---------------------------------------------------------------------
 Structure from the checkpoint file:  "/scratch/user/peterchao1/peterchao1/6101743_1659722380000000834196633/Gau-164038.chk"
 --------------
 Comment gs min
 --------------
 Charge =  0 Multiplicity = 1

                         Standard orientation:
 ---------------------------------------------------------------------
 Center     Atomic      Atomic             Coordinates (Angstroms)
 Number     Number       Type             X           Y           Z
 ---------------------------------------------------------------------
      1         17           0        0.291389   -1.022980   -1.422666
      2          6           0       -0.000072    0.000018    0.000007
      3         17           0       -0.076052    1.702712   -0.500518
      4         17           0       -1.538472   -0.463715    0.757677
      5         17           0        1.323160   -0.216023    1.165504
 ---------------------------------------------------------------------

 SCF Done:  E(RwB97XD) =  -1878.24199140     a.u. after    1 cycles

 The electronic state is 1-A.
 Alpha  occ. eigenvalues -- -101.71038-101.71037-101.71036-101.71030 -10.52985
 Alpha  occ. eigenvalues --   -9.61911  -9.61911  -9.61910  -9.61904  -7.37378
 Alpha  occ. eigenvalues --   -7.37377  -7.37376  -7.37374  -7.36246  -7.36246
 Alpha  occ. eigenvalues --   -7.36246  -7.36244  -7.36244  -7.36244  -7.36243
 Alpha  occ. eigenvalues --   -7.36243  -1.08409  -0.95357  -0.95356  -0.95354
 Alpha  occ. eigenvalues --   -0.71906  -0.59104  -0.59104  -0.59103  -0.46084
 Alpha  occ. eigenvalues --   -0.46082  -0.43169  -0.43169  -0.43168  -0.39894
 Alpha  occ. eigenvalues --   -0.39894  -0.39893
 Alpha virt. eigenvalues --    0.03370   0.07673   0.07676   0.07678   0.42567
 Alpha virt. eigenvalues --    0.47728   0.47730   0.47733   0.59513   0.59515
 Alpha virt. eigenvalues --    0.59517   0.69670   0.69673   0.79666   0.79666

 Mulliken charges:
               1
     1  Cl  -0.006676
     2  C    0.026744
     3  Cl  -0.006663
     4  Cl  -0.006685
     5  Cl  -0.006720
 Sum of Mulliken charges =  -0.00000

 Dipole moment (field-independent basis, Debye):
    X=             -0.0003    Y=              0.0002    Z=             -0.0003  Tot=              0.0005
  Exact polarizability:  46.030  -0.000  46.019   0.001  -0.000  46.016
 Approx polarizability:  56.184   0.000  56.176   0.000  -0.000  56.173
   1 Symmetry operations used in ECPInt.
 ECPInt:  NShTT=     741 NPrTT=    3675 LenC2=     712 LenP2D=    2521.
 LDataN:  DoStor=T MaxTD1= 6 Len=  172
 Calling FoFJK, ICntrl=    100127 FMM=F ISym2X=0 I1Cent= 0 IOpClX= 0 NMat=1 NMatS=1 NMatT=0.
 Full mass-weighted force constant matrix:
 Low frequencies ---   -1.5492   -0.0012    0.0041    0.0047    6.9683   10.0355
 Low frequencies ---  220.1660  220.3375  321.6611
 Diagonal vibrational polarizability:

                      1                      2                      3
                      A                      A                      A
 Frequencies --    220.1660               220.3368               321.6610
 Red. masses --     34.9688                34.9688                32.0187
 Frc consts  --      0.9987                 1.0002                 1.9519
 IR Inten    --      0.0001                 0.0000                 0.0065

                      4                      5                      6
                      A                      A                      A
 Frequencies --    321.7448               322.0797               472.3564
 Red. masses --     32.0119                32.0103                34.9687
 Frc consts  --      1.9525                 1.9564                 4.5969
 IR Inten    --      0.0071                 0.0074                 0.0004

                      7                      8                      9
                      A                      A                      A
 Frequencies --    802.4993               805.0078               805.9654
 Red. masses --     13.0954                13.0955                13.0922
 Frc consts  --      4.9689                 5.0000                 5.0107
 IR Inten    --    178.1624               178.0082               178.0204

 Optimization completed.
    -- Stationary point found.
 Normal termination of Gaussian 16 at Fri Aug  5 13:00:06 2022.
