 Gaussian 16, Revision B.01,
 Gaussian 16:  ES64L-G16RevB.01 20-Dec-2017

 --------------------------------------------------------------
 #T wB97XD//def2svpp Volume=tight Geom=AllCheckpoint Guess=Read
 --------------------------------------------------------------
 Structure from the checkpoint file:  "14.chk"
 -------
 Monomer
 -------
 Charge =  0 Multiplicity = 1

                         Standard orientation:
 ---------------------------------------------------------------------
 Center     Atomic      Atomic             Coordinates (Angstroms)
 Number     Number       Type             X           Y           Z
 ---------------------------------------------------------------------
      1          6           0       -0.610715    1.679973   -0.448888
      2          6           0       -0.003205    0.351241    0.010333
      3          6           0       -0.005493    0.281527    1.543141
      4          6           0       -0.814319   -0.823088   -0.570144
      5          8           0       -2.146873   -0.872595   -0.121065
      6          6           0        1.439192    0.255939   -0.518714
      7          8           0        2.129604   -0.903072   -0.122077
      8          1           0       -1.680274    1.721045   -0.184095
      9          1           0       -0.531256    1.794989   -1.545235
     10          1           0       -0.101035    2.540338    0.021308
     11          1           0       -1.019694    0.448476    1.945651
     12          1           0        0.646309    1.061465    1.978324
     13          1           0        0.343259   -0.702498    1.908618
     14          1           0       -0.278588   -1.769258   -0.359667
     15          1           0       -0.867302   -0.715239   -1.667455
     16          1           0       -2.161514   -1.216891    0.780684
     17          1           0        1.992550    1.172701   -0.223024
     18          1           0        1.422020    0.233237   -1.622239
     19          1           0        2.340924   -0.836580    0.817903
 ---------------------------------------------------------------------

 SCF Done:  E(RwB97XD) =  -347.798834437     A.U. after    1 cycles

 The electronic state is 1-A.
 Alpha  occ. eigenvalues --  -19.25312 -19.24752 -10.33744 -10.32925 -10.30475
 Alpha  occ. eigenvalues --  -10.29371 -10.28084  -1.11715  -1.10967  -0.90912
 Alpha  occ. eigenvalues --   -0.78781  -0.76823  -0.75845  -0.64628  -0.61295
 Alpha  occ. eigenvalues --   -0.58524  -0.55462  -0.54145  -0.52623  -0.50514
 Alpha  occ. eigenvalues --   -0.47180  -0.46636  -0.45764  -0.44521  -0.42668
 Alpha  occ. eigenvalues --   -0.40865  -0.39785  -0.36403  -0.33922
 Alpha virt. eigenvalues --    0.11725   0.14386   0.15273   0.17563   0.18933
 Alpha virt. eigenvalues --    0.19586   0.20653   0.22526   0.22931   0.23925
 Alpha virt. eigenvalues --    0.25458   0.26249   0.27674   0.29892   0.30976

 Mulliken charges:
               1
     1  C   -0.278708
     2  C   -0.271114
     3  C   -0.348929
     4  C    0.056823
     5  O   -0.484936
     6  C    0.055449
     7  O   -0.484638
     8  H    0.134743
     9  H    0.114259
    10  H    0.112309
    11  H    0.125180
    12  H    0.120458
    13  H    0.111984
    14  H    0.106416
    15  H    0.098004
    16  H    0.317863
    17  H    0.092308
    18  H    0.103262
    19  H    0.319265
 Sum of Mulliken charges =  -0.00000

 Dipole moment (field-independent basis, Debye):
    X=              0.7935    Y=              0.6790    Z=              2.1240  Tot=              2.3669
 Evaluate density.
 Using the total density.
 Monte-Carlo method of calculating molar volume:
 based on  0.001 e/bohr**3 density envelope.
 Number of points per bohr**3 =  100 CutOff= 1.00D-04
 Using the SCF density.
 There are      1767 points.  Will hold      1767 in memory.
 LenV=  1048325101 MDV=  1048576000.
 Box volume = 5517.917 fraction occupied=0.190
 Integrated density= 4.3586918934495344D+01 error=-1.4413081065504656D+01

 Normal termination of Gaussian 16 at Fri Sep 23 14:20:39 2022.
