 Gaussian 16, Revision B.01,
 Gaussian 16:  ES64L-G16RevB.01 20-Dec-2017

 --------------------------------------------------------------
 #T wB97XD//def2svpp Volume=tight Geom=AllCheckpoint Guess=Read
 --------------------------------------------------------------
 Structure from the checkpoint file:  "32.chk"
 -------
 Monomer
 -------
 Charge =  0 Multiplicity = 1

                         Standard orientation:
 ---------------------------------------------------------------------
 Center     Atomic      Atomic             Coordinates (Angstroms)
 Number     Number       Type             X           Y           Z
 ---------------------------------------------------------------------
      1          6           0        2.725834   -0.207821    0.000000
      2          6           0        1.351556    0.455303   -0.000001
      3          6           0        0.215180   -0.560199    0.000000
      4          6           0       -1.154917    0.072394    0.000000
      5          8           0       -2.130253   -0.852418   -0.000000
      6          8           0       -1.388506    1.251345    0.000000
      7          1           0        2.864416   -0.845568   -0.891353
      8          1           0        2.864416   -0.845566    0.891355
      9          1           0        3.530063    0.547002   -0.000001
     10          1           0        1.247237    1.113158   -0.879755
     11          1           0        1.247237    1.113159    0.879753
     12          1           0        0.274436   -1.228553    0.878809
     13          1           0        0.274436   -1.228554   -0.878807
     14          1           0       -2.978073   -0.374550   -0.000000
 ---------------------------------------------------------------------

 SCF Done:  E(RwB97XD) =  -307.372604067     A.U. after    1 cycles

 The electronic state is 1-A.
 Alpha  occ. eigenvalues --  -19.30204 -19.24583 -10.43044 -10.30839 -10.29487
 Alpha  occ. eigenvalues --  -10.28655  -1.20446  -1.10766  -0.89689  -0.81478
 Alpha  occ. eigenvalues --   -0.72209  -0.66611  -0.58680  -0.57927  -0.57079
 Alpha  occ. eigenvalues --   -0.52912  -0.50926  -0.48786  -0.46914  -0.44266
 Alpha  occ. eigenvalues --   -0.42986  -0.41731  -0.40802  -0.36369
 Alpha virt. eigenvalues --    0.08833   0.13407   0.14575   0.17951   0.18310
 Alpha virt. eigenvalues --    0.19670   0.22801   0.23937   0.24781   0.28630
 Alpha virt. eigenvalues --    0.29933   0.33399   0.36766   0.41934   0.50765

 Mulliken charges:
               1
     1  C   -0.312602
     2  C   -0.229083
     3  C   -0.269506
     4  C    0.208534
     5  O   -0.370415
     6  O   -0.241054
     7  H    0.114331
     8  H    0.114331
     9  H    0.127002
    10  H    0.121694
    11  H    0.121694
    12  H    0.139581
    13  H    0.139581
    14  H    0.335913
 Sum of Mulliken charges =  -0.00000

 Dipole moment (field-independent basis, Debye):
    X=              0.1444    Y=             -1.4231    Z=             -0.0000  Tot=              1.4304
 Evaluate density.
 Using the total density.
 Monte-Carlo method of calculating molar volume:
 based on  0.001 e/bohr**3 density envelope.
 Number of points per bohr**3 =  100 CutOff= 1.00D-04
 Using the SCF density.
 There are      1590 points.  Will hold      1590 in memory.
 LenV=  1048390379 MDV=  1048576000.
 Box volume = 4021.707 fraction occupied=0.213
 Integrated density= 4.5097576178877176D+01 error=-2.9024238211228237D+00

 Normal termination of Gaussian 16 at Thu Feb  2 12:58:12 2023.
