 Gaussian 16, Revision B.01,
 Gaussian 16:  ES64L-G16RevB.01 20-Dec-2017

 --------------------------------------------------------------
 #T wB97XD//def2svpp Volume=tight Geom=AllCheckpoint Guess=Read
 --------------------------------------------------------------
 Structure from the checkpoint file:  "50.chk"
 -------
 Monomer
 -------
 Charge =  0 Multiplicity = 1

                         Standard orientation:
 ---------------------------------------------------------------------
 Center     Atomic      Atomic             Coordinates (Angstroms)
 Number     Number       Type             X           Y           Z
 ---------------------------------------------------------------------
      1          9           0        0.551662    1.097107   -0.473224
      2          6           0       -0.000007   -0.000009    0.000013
      3          9           0        0.834182   -0.586928    0.831610
      4          9           0       -1.110551    0.306576    0.636106
      5          9           0       -0.275288   -0.816749   -0.994501
 ---------------------------------------------------------------------

 SCF Done:  E(RwB97XD) =  -437.037901293     A.U. after    1 cycles

 The electronic state is 1-A.
 Alpha  occ. eigenvalues --  -24.88121 -24.88114 -24.88114 -24.88113 -10.64078
 Alpha  occ. eigenvalues --   -1.47945  -1.35590  -1.35590  -1.35589  -0.82626
 Alpha  occ. eigenvalues --   -0.74270  -0.74270  -0.74269  -0.60583  -0.60582
 Alpha  occ. eigenvalues --   -0.57709  -0.57709  -0.57709  -0.53217  -0.53217
 Alpha  occ. eigenvalues --   -0.53217
 Alpha virt. eigenvalues --    0.26683   0.27705   0.27706   0.27708   0.39981
 Alpha virt. eigenvalues --    0.51509   0.51510   0.51512   1.08940   1.08940
 Alpha virt. eigenvalues --    1.15134   1.15135   1.15135   1.17742   1.38474

 Mulliken charges:
               1
     1  F   -0.150933
     2  C    0.603637
     3  F   -0.150894
     4  F   -0.150902
     5  F   -0.150909
 Sum of Mulliken charges =   0.00000

 Dipole moment (field-independent basis, Debye):
    X=             -0.0001    Y=             -0.0001    Z=              0.0001  Tot=              0.0001
 Evaluate density.
 Using the total density.
 Monte-Carlo method of calculating molar volume:
 based on  0.001 e/bohr**3 density envelope.
 Number of points per bohr**3 =  100 CutOff= 1.00D-04
 Using the SCF density.
 There are      1315 points.  Will hold      1315 in memory.
 LenV=  1048466780 MDV=  1048576000.
 Box volume = 2278.077 fraction occupied=0.164
 Integrated density= 2.8167812191586044D+01 error=-1.3832187808413956D+01

 Normal termination of Gaussian 16 at Thu Sep 29 08:34:32 2022.
