 Gaussian 16, Revision B.01,
 Gaussian 16:  ES64L-G16RevB.01 20-Dec-2017

 --------------------------------------------------------------
 #T wB97XD//def2svpp Volume=tight Geom=AllCheckpoint Guess=Read
 --------------------------------------------------------------
 Structure from the checkpoint file:  "1.chk"
 -------
 Monomer
 -------
 Charge =  0 Multiplicity = 1

                         Standard orientation:
 ---------------------------------------------------------------------
 Center     Atomic      Atomic             Coordinates (Angstroms)
 Number     Number       Type             X           Y           Z
 ---------------------------------------------------------------------
      1         17           0        0.000000    1.983690    1.969541
      2          6           0       -0.904950    0.891523    0.868415
      3          6           0        0.000000    0.000000    0.000000
      4          6           0       -0.891523   -0.904950   -0.868415
      5         17           0       -1.983690    0.000000   -1.969541
      6          6           0        0.891523    0.904950   -0.868415
      7         17           0        1.983690   -0.000000   -1.969541
      8          6           0        0.904950   -0.891523    0.868415
      9         17           0       -0.000000   -1.983690    1.969541
     10          1           0       -1.539311    1.527169    0.235803
     11          1           0       -1.546441    0.265644    1.505012
     12          1           0       -1.527169   -1.539311   -0.235803
     13          1           0       -0.265644   -1.546441   -1.505012
     14          1           0        1.527169    1.539311   -0.235803
     15          1           0        0.265644    1.546441   -1.505012
     16          1           0        1.546441   -0.265644    1.505012
     17          1           0        1.539311   -1.527169    0.235803
 ---------------------------------------------------------------------

 SCF Done:  E(RwB97XD) =  -2035.36357501     A.U. after    1 cycles

 The electronic state is 1-A.
 Alpha  occ. eigenvalues -- -101.67947-101.67946-101.67945-101.67945 -10.36889
 Alpha  occ. eigenvalues --  -10.36889 -10.36886 -10.36883 -10.36577  -9.58708
 Alpha  occ. eigenvalues --   -9.58708  -9.58707  -9.58707  -7.34092  -7.34092
 Alpha  occ. eigenvalues --   -7.34092  -7.34092  -7.33128  -7.33128  -7.33127
 Alpha  occ. eigenvalues --   -7.33127  -7.33092  -7.33092  -7.33092  -7.33092
 Alpha  occ. eigenvalues --   -1.01522  -0.96323  -0.95757  -0.95757  -0.88461
 Alpha  occ. eigenvalues --   -0.78489  -0.78489  -0.76486  -0.65528  -0.61168
 Alpha  occ. eigenvalues --   -0.58375  -0.58375  -0.56157  -0.53752  -0.51081
 Alpha  occ. eigenvalues --   -0.51081  -0.49897  -0.47742  -0.47742  -0.47104
 Alpha  occ. eigenvalues --   -0.41444  -0.40067  -0.40067  -0.39479  -0.38789
 Alpha  occ. eigenvalues --   -0.38027  -0.38027  -0.37950
 Alpha virt. eigenvalues --    0.09852   0.10046   0.10482   0.10482   0.15499
 Alpha virt. eigenvalues --    0.16379   0.16379   0.16912   0.18576   0.21189
 Alpha virt. eigenvalues --    0.22470   0.22470   0.25021   0.25658   0.27432

 Mulliken charges:
               1
     1  Cl  -0.143064
     2  C   -0.130059
     3  C   -0.280232
     4  C   -0.130059
     5  Cl  -0.143064
     6  C   -0.130059
     7  Cl  -0.143064
     8  C   -0.130059
     9  Cl  -0.143064
    10  H    0.171194
    11  H    0.171987
    12  H    0.171194
    13  H    0.171987
    14  H    0.171194
    15  H    0.171987
    16  H    0.171987
    17  H    0.171194
 Sum of Mulliken charges =   0.00000

 Dipole moment (field-independent basis, Debye):
    X=             -0.0000    Y=             -0.0000    Z=              0.0000  Tot=              0.0000
 Evaluate density.
 Using the total density.
 Monte-Carlo method of calculating molar volume:
 based on  0.001 e/bohr**3 density envelope.
 Number of points per bohr**3 =  100 CutOff= 1.00D-04
 Using the SCF density.
 There are      2376 points.  Will hold      2376 in memory.
 LenV=  1048143115 MDV=  1048576000.
 Box volume =13415.621 fraction occupied=0.102
 Integrated density= 6.1649394527937453D+01 error=-4.4350605472062547D+01

 Normal termination of Gaussian 16 at Tue Nov 14 09:38:56 2023.
