 Gaussian 16, Revision B.01,
 Gaussian 16:  ES64L-G16RevB.01 20-Dec-2017

 --------------------------------------------------------------
 #T wB97XD//def2svpp Volume=tight Geom=AllCheckpoint Guess=Read
 --------------------------------------------------------------
 Structure from the checkpoint file:  "9.chk"
 -----
 Dimer
 -----
 Charge =  0 Multiplicity = 1

                         Standard orientation:
 ---------------------------------------------------------------------
 Center     Atomic      Atomic             Coordinates (Angstroms)
 Number     Number       Type             X           Y           Z
 ---------------------------------------------------------------------
      1          8           0        1.372147   -0.931639    0.023588
      2          6           0        1.254728    0.466484    0.231262
      3          6           0       -0.033377    1.047148   -0.345876
      4          6           0       -1.293501    0.399196    0.229710
      5          8           0       -1.408558   -0.957374   -0.101097
      6          1           0        1.460457   -1.096678   -0.925943
      7          1           0        2.137689    0.996314   -0.177123
      8          1           0        1.271502    0.600818    1.325786
      9          1           0       -0.036810    0.922108   -1.445897
     10          1           0       -0.049549    2.134688   -0.146995
     11          1           0       -2.188304    0.903618   -0.171710
     12          1           0       -1.304614    0.552342    1.332076
     13          1           0       -0.566180   -1.378075    0.139297
 ---------------------------------------------------------------------

 SCF Done:  E(RwB97XD) =  -269.258243369     A.U. after    1 cycles

 The electronic state is 1-A.
 Alpha  occ. eigenvalues --  -19.27078 -19.22838 -10.34975 -10.33153 -10.29603
 Alpha  occ. eigenvalues --   -1.13240  -1.09449  -0.86845  -0.76450  -0.69687
 Alpha  occ. eigenvalues --   -0.61537  -0.58781  -0.55426  -0.53141  -0.50431
 Alpha  occ. eigenvalues --   -0.48271  -0.46076  -0.42803  -0.40943  -0.36215
 Alpha  occ. eigenvalues --   -0.33962
 Alpha virt. eigenvalues --    0.12221   0.15386   0.17491   0.19121   0.20645
 Alpha virt. eigenvalues --    0.21210   0.22589   0.23469   0.27779   0.29173
 Alpha virt. eigenvalues --    0.32310   0.34394   0.50844   0.53666   0.55867

 Mulliken charges:
               1
     1  O   -0.501592
     2  C   -0.002707
     3  C   -0.293909
     4  C    0.035162
     5  O   -0.512769
     6  H    0.323971
     7  H    0.110404
     8  H    0.113387
     9  H    0.108329
    10  H    0.112795
    11  H    0.107311
    12  H    0.082310
    13  H    0.317309
 Sum of Mulliken charges =  -0.00000

 Dipole moment (field-independent basis, Debye):
    X=              1.8126    Y=              1.8295    Z=             -0.7198  Tot=              2.6740
 Evaluate density.
 Using the total density.
 Monte-Carlo method of calculating molar volume:
 based on  0.001 e/bohr**3 density envelope.
 Number of points per bohr**3 =  100 CutOff= 1.00D-04
 Using the SCF density.
 There are      1566 points.  Will hold      1566 in memory.
 LenV=  1048419303 MDV=  1048576000.
 Box volume = 3846.054 fraction occupied=0.175
 Integrated density= 7.5000806371245602D+01 error= 3.3000806371245602D+01

 Normal termination of Gaussian 16 at Fri Feb  3 12:54:09 2023.
