 Gaussian 16, Revision B.01,
 Gaussian 16:  ES64L-G16RevB.01 20-Dec-2017

 --------------------------------------------------------------
 #T wB97XD//def2svpp Volume=tight Geom=AllCheckpoint Guess=Read
 --------------------------------------------------------------
 Structure from the checkpoint file:  "monomer.chk"
 -------
 Monomer
 -------
 Charge =  0 Multiplicity = 1

                         Standard orientation:
 ---------------------------------------------------------------------
 Center     Atomic      Atomic             Coordinates (Angstroms)
 Number     Number       Type             X           Y           Z
 ---------------------------------------------------------------------
      1          6           0        2.583231   -0.036248   -0.622386
      2          6           0        1.665127    0.004288    0.599224
      3          6           0        0.153823    0.010686    0.321313
      4          7           0       -0.612628    0.156100    1.567918
      5          6           0       -0.255348    1.219053   -0.557144
      6          8           0       -1.652253    1.361510   -0.533512
      7          6           0       -0.288691   -1.294288   -0.369851
      8          8           0       -1.680511   -1.434284   -0.429812
      9          1           0        3.639273   -0.017666   -0.304686
     10          1           0        2.424078    0.831825   -1.284503
     11          1           0        2.436402   -0.950571   -1.221416
     12          1           0        1.901828    0.911758    1.187777
     13          1           0        1.887023   -0.856561    1.257284
     14          1           0       -0.039753    0.468419    2.348698
     15          1           0       -1.101094   -0.700877    1.820202
     16          1           0        0.049130    1.079238   -1.607328
     17          1           0        0.245268    2.136034   -0.177778
     18          1           0       -1.863224    1.254758    0.419662
     19          1           0        0.094912   -2.158420    0.203296
     20          1           0        0.167201   -1.340397   -1.380327
     21          1           0       -2.039394   -0.588997   -0.756647
 ---------------------------------------------------------------------

 SCF Done:  E(RwB97XD) =  -403.093135319     A.U. after    1 cycles

 The electronic state is 1-A.
 Alpha  occ. eigenvalues --  -19.24608 -19.23662 -14.43207 -10.33600 -10.33552
 Alpha  occ. eigenvalues --  -10.33364 -10.30492 -10.29493  -1.12221  -1.09773
 Alpha  occ. eigenvalues --   -0.98943  -0.88099  -0.81084  -0.76031  -0.72841
 Alpha  occ. eigenvalues --   -0.66849  -0.61583  -0.59738  -0.57345  -0.55628
 Alpha  occ. eigenvalues --   -0.54005  -0.52051  -0.50441  -0.49155  -0.48244
 Alpha  occ. eigenvalues --   -0.46182  -0.45868  -0.44507  -0.41355  -0.40039
 Alpha  occ. eigenvalues --   -0.35422  -0.35059  -0.32730
 Alpha virt. eigenvalues --    0.12484   0.13902   0.16077   0.16634   0.18728
 Alpha virt. eigenvalues --    0.19477   0.20110   0.20991   0.21812   0.22612
 Alpha virt. eigenvalues --    0.24004   0.24663   0.26164   0.28982   0.30079

 Mulliken charges:
               1
     1  C   -0.342252
     2  C   -0.176196
     3  C   -0.241309
     4  N   -0.504010
     5  C    0.093336
     6  O   -0.506305
     7  C    0.084870
     8  O   -0.505232
     9  H    0.128115
    10  H    0.129749
    11  H    0.130799
    12  H    0.103363
    13  H    0.104630
    14  H    0.230400
    15  H    0.243797
    16  H    0.107396
    17  H    0.086492
    18  H    0.323494
    19  H    0.094038
    20  H    0.095040
    21  H    0.319785
 Sum of Mulliken charges =  -0.00000

 Dipole moment (field-independent basis, Debye):
    X=              2.8590    Y=              0.2291    Z=              1.6859  Tot=              3.3269
 Evaluate density.
 Using the total density.
 Monte-Carlo method of calculating molar volume:
 based on  0.001 e/bohr**3 density envelope.
 Number of points per bohr**3 =  100 CutOff= 1.00D-04
 Using the SCF density.
 There are      1776 points.  Will hold      1776 in memory.
 LenV=  1048289278 MDV=  1048576000.
 Box volume = 5604.321 fraction occupied=0.195
 Integrated density= 5.8693155478853186D+01 error=-7.3068445211468145D+00

 1\1\GINC-C420\SP\RwB97XD\def2SVPP\C5H13N1O2\PETERCHAO1\02-Apr-2024\0\\
 #T wB97XD//def2svpp Volume=tight Geom=AllCheckpoint Guess=Read\\Monome
 r\\0,1\C,0,-2.6072314991,-0.0152566006,0.7014656\C,0,-1.7166142328,-0.
 0916858183,-0.5386347217\C,0,-0.2001316035,-0.0278862644,-0.2987882289
 \N,0,0.5362203671,-0.0055285633,-1.571541253\C,0,0.2030680348,1.276213
 4525,0.4333404787\O,0,1.5959422467,1.4403059336,0.3614345453\C,0,0.283
 6869707,-1.2415568441,0.5193839282\O,0,1.6790424955,-1.3491653463,0.56
 13479368\H,0,-3.6700168986,-0.0503943098,0.408624083\H,0,-2.4516412459

 Normal termination of Gaussian 16 at Tue Apr  2 13:58:55 2024.
