 Gaussian 16, Revision B.01,
 Gaussian 16:  ES64L-G16RevB.01 20-Dec-2017

 --------------------------------------------------------------
 #T wB97XD//def2svpp Volume=tight Geom=AllCheckpoint Guess=Read
 --------------------------------------------------------------
 Structure from the checkpoint file:  "18.chk"
 -------
 Monomer
 -------
 Charge =  0 Multiplicity = 1

                         Standard orientation:
 ---------------------------------------------------------------------
 Center     Atomic      Atomic             Coordinates (Angstroms)
 Number     Number       Type             X           Y           Z
 ---------------------------------------------------------------------
      1          6           0        0.000000    1.172464    1.271348
      2          6           0       -0.000000    0.341163    0.000000
      3          6           0        0.000000    1.172471   -1.271343
      4         17           0        1.465298   -0.717934   -0.000002
      5         17           0       -1.465299   -0.717933   -0.000002
      6          1           0        0.898189    1.811923    1.295644
      7          1           0        0.000001    0.522718    2.159775
      8          1           0       -0.898186    1.811925    1.295644
      9          1           0        0.898188    1.811931   -1.295635
     10          1           0       -0.898186    1.811933   -1.295635
     11          1           0       -0.000000    0.522731   -2.159774
 ---------------------------------------------------------------------

 SCF Done:  E(RwB97XD) =  -1037.91280366     A.U. after    1 cycles

 The electronic state is 1-A.
 Alpha  occ. eigenvalues -- -101.66940-101.66936 -10.42409 -10.31013 -10.31011
 Alpha  occ. eigenvalues --   -9.57769  -9.57766  -7.33160  -7.33158  -7.32167
 Alpha  occ. eigenvalues --   -7.32166  -7.32147  -7.32147  -1.00559  -0.90886
 Alpha  occ. eigenvalues --   -0.85075  -0.80937  -0.66096  -0.57188  -0.56166
 Alpha  occ. eigenvalues --   -0.54604  -0.50207  -0.47654  -0.46545  -0.45869
 Alpha  occ. eigenvalues --   -0.40292  -0.39033  -0.38008  -0.37243
 Alpha virt. eigenvalues --    0.08915   0.10639   0.13902   0.18809   0.19781
 Alpha virt. eigenvalues --    0.20182   0.22288   0.23106   0.25150   0.27628
 Alpha virt. eigenvalues --    0.43966   0.47998   0.49985   0.51626   0.52605

 Mulliken charges:
               1
     1  C   -0.222856
     2  C   -0.200277
     3  C   -0.222856
     4  Cl  -0.100963
     5  Cl  -0.100962
     6  H    0.137055
     7  H    0.149847
     8  H    0.137055
     9  H    0.137055
    10  H    0.137055
    11  H    0.149847
 Sum of Mulliken charges =  -0.00000

 Dipole moment (field-independent basis, Debye):
    X=             -0.0000    Y=              2.2439    Z=              0.0000  Tot=              2.2439
 Evaluate density.
 Using the total density.
 Monte-Carlo method of calculating molar volume:
 based on  0.001 e/bohr**3 density envelope.
 Number of points per bohr**3 =  100 CutOff= 1.00D-04
 Using the SCF density.
 There are      1921 points.  Will hold      1921 in memory.
 LenV=  1048377166 MDV=  1048576000.
 Box volume = 7091.018 fraction occupied=0.121
 Integrated density= 4.5469143024612684D+01 error=-1.2530856975387316D+01

 Normal termination of Gaussian 16 at Fri Sep 23 14:17:19 2022.
