 Gaussian 16, Revision B.01,
 Gaussian 16:  ES64L-G16RevB.01 20-Dec-2017

 --------------------------------------------------------------
 #T wB97XD//def2svpp Volume=tight Geom=AllCheckpoint Guess=Read
 --------------------------------------------------------------
 Structure from the checkpoint file:  "monomer.chk"
 -------
 Monomer
 -------
 Charge =  0 Multiplicity = 1

                         Standard orientation:
 ---------------------------------------------------------------------
 Center     Atomic      Atomic             Coordinates (Angstroms)
 Number     Number       Type             X           Y           Z
 ---------------------------------------------------------------------
      1          6           0       -1.638580   -0.801641   -0.382104
      2          6           0       -0.393342    0.001821    0.004988
      3          6           0       -0.497350    1.438890   -0.508881
      4          7           0       -0.175800    0.054558    1.457971
      5          6           0        0.874664   -0.668009   -0.564691
      6          8           0        2.025757   -0.033828   -0.100444
      7          1           0       -1.752739   -0.864221   -1.479118
      8          1           0       -2.549799   -0.330665    0.028327
      9          1           0       -1.581215   -1.833602    0.010083
     10          1           0       -1.354321    1.963146   -0.047189
     11          1           0       -0.643555    1.450024   -1.602110
     12          1           0        0.425398    1.994697   -0.278106
     13          1           0       -0.326006   -0.861662    1.883172
     14          1           0       -0.810008    0.712103    1.910403
     15          1           0        0.870412   -0.621794   -1.667725
     16          1           0        0.860152   -1.745548   -0.279979
     17          1           0        1.813873    0.199874    0.824127
 ---------------------------------------------------------------------

 SCF Done:  E(RwB97XD) =  -288.692975444     A.U. after    1 cycles

 The electronic state is 1-A.
 Alpha  occ. eigenvalues --  -19.22532 -14.43102 -10.33373 -10.32454 -10.28895
 Alpha  occ. eigenvalues --  -10.28291  -1.09842  -0.99035  -0.85692  -0.78320
 Alpha  occ. eigenvalues --   -0.75537  -0.65931  -0.59848  -0.56127  -0.55126
 Alpha  occ. eigenvalues --   -0.54388  -0.50155  -0.48418  -0.47315  -0.45758
 Alpha  occ. eigenvalues --   -0.45055  -0.42531  -0.38918  -0.34266  -0.33028
 Alpha virt. eigenvalues --    0.11730   0.16946   0.17269   0.17877   0.19461
 Alpha virt. eigenvalues --    0.20292   0.21528   0.22821   0.23816   0.25798
 Alpha virt. eigenvalues --    0.26692   0.29023   0.30672   0.31117   0.32439

 Mulliken charges:
               1
     1  C   -0.262822
     2  C   -0.206655
     3  C   -0.264504
     4  N   -0.514458
     5  C    0.105866
     6  O   -0.494443
     7  H    0.117450
     8  H    0.112058
     9  H    0.110148
    10  H    0.108322
    11  H    0.117479
    12  H    0.132359
    13  H    0.224994
    14  H    0.227472
    15  H    0.094949
    16  H    0.071537
    17  H    0.320249
 Sum of Mulliken charges =  -0.00000

 Dipole moment (field-independent basis, Debye):
    X=             -2.9604    Y=             -0.3880    Z=              1.0713  Tot=              3.1721
 Evaluate density.
 Using the total density.
 Monte-Carlo method of calculating molar volume:
 based on  0.001 e/bohr**3 density envelope.
 Number of points per bohr**3 =  100 CutOff= 1.00D-04
 Using the SCF density.
 There are      1712 points.  Will hold      1712 in memory.
 LenV=  1048365409 MDV=  1048576000.
 Box volume = 5025.685 fraction occupied=0.169
 Integrated density= 4.0790297690055169D+01 error=-9.2097023099448307D+00

 1\1\GINC-C419\SP\RwB97XD\def2SVPP\C4H11N1O1\PETERCHAO1\02-Apr-2024\0\\
 #T wB97XD//def2svpp Volume=tight Geom=AllCheckpoint Guess=Read\\Monome
 r\\0,1\C,0,-1.6686351776,-0.8391748454,-0.4011038198\C,0,-0.4423992271
 ,-0.008191494,-0.0114613015\C,0,-0.5523408758,1.4109885882,-0.57171720
 45\N,0,-0.2584392842,0.091859509,1.4436720309\C,0,0.8462719446,-0.6787
 128686,-0.5318200256\O,0,1.9787209769,-0.0157691838,-0.0619356959\H,0,
 -1.757177075,-0.9368167649,-1.4979246019\H,0,-2.5946011297,-0.36766446
 91,-0.0257954432\H,0,-1.6075269883,-1.8578041511,0.0239914832\H,0,-1.4

 Normal termination of Gaussian 16 at Tue Apr  2 13:48:12 2024.
