 Gaussian 16, Revision B.01,
 Gaussian 16:  ES64L-G16RevB.01 20-Dec-2017

 ----------------------------------------------------------------------
 #T wB97XD/def2svpp opt=(tight,calcall) freq int(grid=ultrafine) scf=(v
 erytight,qc)
 ----------------------------------------------------------------------
 -----
 dimer
 -----
 Symbolic Z-matrix:
 Charge =  0 Multiplicity = 1

 SCF Done:  E(RwB97XD) =  -395.094855146     a.u. after    8 cycles
 SCF Done:  E(RwB97XD) =  -395.099732408     a.u. after    8 cycles
 SCF Done:  E(RwB97XD) =  -395.099912648     a.u. after    5 cycles
 SCF Done:  E(RwB97XD) =  -395.099927999     a.u. after    4 cycles
 SCF Done:  E(RwB97XD) =  -395.099928979     a.u. after    2 cycles
 SCF Done:  E(RwB97XD) =  -395.099928576     a.u. after    2 cycles
 SCF Done:  E(RwB97XD) =  -395.099856450     a.u. after    7 cycles
 SCF Done:  E(RwB97XD) =  -395.099928821     a.u. after    3 cycles
 SCF Done:  E(RwB97XD) =  -395.099928487     a.u. after    4 cycles
 SCF Done:  E(RwB97XD) =  -395.099928728     a.u. after    2 cycles
 SCF Done:  E(RwB97XD) =  -395.099929066     a.u. after    2 cycles
 SCF Done:  E(RwB97XD) =  -395.099929101     a.u. after    2 cycles
 SCF Done:  E(RwB97XD) =  -395.099929129     a.u. after    2 cycles
 SCF Done:  E(RwB97XD) =  -395.099928995     a.u. after    2 cycles
 SCF Done:  E(RwB97XD) =  -395.099929037     a.u. after    2 cycles
 SCF Done:  E(RwB97XD) =  -395.099929024     a.u. after    2 cycles
 SCF Done:  E(RwB97XD) =  -395.099928923     a.u. after    2 cycles
 SCF Done:  E(RwB97XD) =  -395.099929080     a.u. after    2 cycles
 SCF Done:  E(RwB97XD) =  -395.099929022     a.u. after    2 cycles
 Optimization completed.
    -- Stationary point found.
 Normal termination of Gaussian 16 at Tue Sep 13 12:41:15 2022.

 ---------------------------------------------------------------------
 #T Geom=AllCheck Guess=TCheck SCRF=Check GenChk RwB97XD/def2SVPP Freq
 ---------------------------------------------------------------------
 Structure from the checkpoint file:  "/scratch/user/peterchao1/peterchao1/6269706_1663082815000000636344719/Gau-238236.chk"
 -----
 dimer
 -----
 Charge =  0 Multiplicity = 1

                         Standard orientation:
 ---------------------------------------------------------------------
 Center     Atomic      Atomic             Coordinates (Angstroms)
 Number     Number       Type             X           Y           Z
 ---------------------------------------------------------------------
      1          6           0        3.954852    0.498692    0.433419
      2          6           0        2.569091   -0.000340    0.000617
      3          6           0        1.823138   -0.557256    1.221492
      4          6           0        1.775436    1.165644   -0.605752
      5          6           0        2.727443   -1.109097   -1.049383
      6          1           0        4.552033   -0.319604    0.874907
      7          1           0        3.870045    1.300569    1.189088
      8          1           0        4.519089    0.902939   -0.426505
      9          1           0        1.679638    0.222763    1.991066
     10          1           0        2.386217   -1.388510    1.683352
     11          1           0        0.825948   -0.939250    0.941079
     12          1           0        1.621520    1.971392    0.134695
     13          1           0        0.780870    0.833917   -0.953805
     14          1           0        2.306553    1.599584   -1.472299
     15          1           0        3.300775   -1.962202   -0.643679
     16          1           0        3.260641   -0.738083   -1.943405
     17          1           0        1.742663   -1.489742   -1.376281
     18          6           0       -3.953888   -0.466351    0.470834
     19          6           0       -2.569063    0.000406    0.000619
     20          6           0       -1.822355    0.647160    1.175889
     21          6           0       -1.774977   -1.206739   -0.518364
     22          6           0       -2.729650    1.027931   -1.128676
     23          1           0       -3.867547   -1.209460    1.284202
     24          1           0       -4.518404   -0.934324   -0.355946
     25          1           0       -4.551605    0.382035    0.850490
     26          1           0       -1.676599   -0.073659    2.000772
     27          1           0       -2.386193    1.509435    1.575808
     28          1           0       -0.826143    1.008956    0.866587
     29          1           0       -1.619898   -1.955400    0.279541
     30          1           0       -0.780930   -0.901026   -0.890792
     31          1           0       -2.306380   -1.704010   -1.350013
     32          1           0       -3.263245    0.590934   -1.992122
     33          1           0       -1.745619    1.384258   -1.484003
     34          1           0       -3.303593    1.908192   -0.786900
 ---------------------------------------------------------------------

 SCF Done:  E(RwB97XD) =  -395.099929022     a.u. after    1 cycles

 The electronic state is 1-A.
 Alpha  occ. eigenvalues --  -10.30477 -10.30476 -10.27852 -10.27852 -10.27748
 Alpha  occ. eigenvalues --  -10.27747 -10.27715 -10.27714 -10.27628 -10.27626
 Alpha  occ. eigenvalues --   -0.91343  -0.91194  -0.77180  -0.77095  -0.77035
 Alpha  occ. eigenvalues --   -0.76927  -0.76923  -0.76676  -0.62001  -0.61481
 Alpha  occ. eigenvalues --   -0.53987  -0.53514  -0.53404  -0.53352  -0.53221
 Alpha  occ. eigenvalues --   -0.52823  -0.48671  -0.48306  -0.48146  -0.47781
 Alpha  occ. eigenvalues --   -0.44346  -0.44312  -0.44292  -0.44255  -0.44184
 Alpha  occ. eigenvalues --   -0.44135  -0.40748  -0.40088  -0.40075  -0.39920
 Alpha  occ. eigenvalues --   -0.39886  -0.39040
 Alpha virt. eigenvalues --    0.11378   0.13679   0.16470   0.16786   0.18237
 Alpha virt. eigenvalues --    0.18359   0.18507   0.18511   0.19583   0.19757
 Alpha virt. eigenvalues --    0.20378   0.21719   0.21942   0.23046   0.23544

 Mulliken charges:
               1
     1  C   -0.267845
     2  C   -0.264786
     3  C   -0.284810
     4  C   -0.297563
     5  C   -0.280973
     6  H    0.111650
     7  H    0.111653
     8  H    0.111116
     9  H    0.113336
    10  H    0.111272
    11  H    0.123988
    12  H    0.117771
    13  H    0.137278
    14  H    0.112958
    15  H    0.111861
    16  H    0.111534
    17  H    0.121557
    18  C   -0.267851
    19  C   -0.264843
    20  C   -0.284755
    21  C   -0.297572
    22  C   -0.280899
    23  H    0.111657
    24  H    0.111113
    25  H    0.111655
    26  H    0.113390
    27  H    0.111284
    28  H    0.123917
    29  H    0.117786
    30  H    0.137261
    31  H    0.112959
    32  H    0.111530
    33  H    0.121509
    34  H    0.111862
 Sum of Mulliken charges =   0.00000

 Dipole moment (field-independent basis, Debye):
    X=             -0.0003    Y=             -0.0010    Z=             -0.0247  Tot=              0.0247
  Exact polarizability: 124.435   0.125 105.589   0.000  -0.004 105.482
 Approx polarizability: 114.580   0.043 112.800  -0.003  -0.003 112.700
   1 Symmetry operations used in ECPInt.
 ECPInt:  NShTT=    5886 NPrTT=   23638 LenC2=    5720 LenP2D=   16999.
 LDataN:  DoStor=T MaxTD1= 6 Len=  172
 Calling FoFJK, ICntrl=    100127 FMM=F ISym2X=0 I1Cent= 0 IOpClX= 0 NMat=1 NMatS=1 NMatT=0.
 Full mass-weighted force constant matrix:
 Low frequencies ---   -0.0009   -0.0006    0.0001    2.6995    5.4296    9.0883
 Low frequencies ---   25.7943   28.2913   40.4980
 Diagonal vibrational polarizability:

                      1                      2                      3
                      A                      A                      A
 Frequencies --     25.6980                28.2367                40.4949
 Red. masses --      2.5956                 2.5944                 2.5452
 Frc consts  --      0.0010                 0.0012                 0.0025
 IR Inten    --      0.0386                 0.0077                 0.0018

                      4                      5                      6
                      A                      A                      A
 Frequencies --     59.2659                78.8659                91.7211
 Red. masses --      4.1685                 2.7524                 2.7597
 Frc consts  --      0.0086                 0.0101                 0.0137
 IR Inten    --      0.0032                 0.0344                 0.0009

                      7                      8                      9
                      A                      A                      A
 Frequencies --    215.1054               219.2491               291.9031
 Red. masses --      1.0107                 1.0139                 1.0346
 Frc consts  --      0.0276                 0.0287                 0.0519
 IR Inten    --      0.0149                 0.0014                 0.0272

                     10                     11                     12
                      A                      A                      A
 Frequencies --    292.8828               293.7678               299.3536
 Red. masses --      1.0333                 1.0356                 1.0292
 Frc consts  --      0.0522                 0.0527                 0.0543
 IR Inten    --      0.0671                 0.2021                 0.0356

                     13                     14                     15
                      A                      A                      A
 Frequencies --    302.2860               313.7871               338.8832
 Red. masses --      1.0363                 1.0732                 2.1704
 Frc consts  --      0.0558                 0.0623                 0.1469
 IR Inten    --      0.0151                 0.0029                 0.0071

                     16                     17                     18
                      A                      A                      A
 Frequencies --    342.5547               346.5712               351.6732
 Red. masses --      2.1831                 2.1807                 2.0382
 Frc consts  --      0.1509                 0.1543                 0.1485
 IR Inten    --      0.0172                 0.0046                 0.0195

                     19                     20                     21
                      A                      A                      A
 Frequencies --    428.7632               430.8552               430.9532
 Red. masses --      2.1126                 2.1190                 2.1202
 Frc consts  --      0.2288                 0.2318                 0.2320
 IR Inten    --      0.0075                 0.0258                 0.0243

                     22                     23                     24
                      A                      A                      A
 Frequencies --    433.3689               434.3771               435.4519
 Red. masses --      2.1085                 2.1061                 2.1027
 Frc consts  --      0.2333                 0.2341                 0.2349
 IR Inten    --      0.0150                 0.0056                 0.0004

                     25                     26                     27
                      A                      A                      A
 Frequencies --    751.5584               751.7329               951.3286
 Red. masses --      3.3951                 3.3959                 1.8635
 Frc consts  --      1.1299                 1.1307                 0.9937
 IR Inten    --      0.0153                 0.0402                 1.1185

                     28                     29                     30
                      A                      A                      A
 Frequencies --    951.3515               952.2560               952.5748
 Red. masses --      1.8621                 1.8613                 1.8618
 Frc consts  --      0.9929                 0.9944                 0.9954
 IR Inten    --      1.2983                 1.2924                 1.2140

                     31                     32                     33
                      A                      A                      A
 Frequencies --    952.8607               953.2574               969.3422
 Red. masses --      1.8630                 1.8631                 1.2058
 Frc consts  --      0.9966                 0.9975                 0.6676
 IR Inten    --      0.3402                 0.9172                 0.0900

                     34                     35                     36
                      A                      A                      A
 Frequencies --    970.1366               970.8369               970.8595
 Red. masses --      1.2048                 1.2039                 1.2021
 Frc consts  --      0.6681                 0.6686                 0.6676
 IR Inten    --      0.0119                 0.0299                 0.0117

                     37                     38                     39
                      A                      A                      A
 Frequencies --    971.0718               971.8200              1093.6143
 Red. masses --      1.2046                 1.2033                 1.3598
 Frc consts  --      0.6693                 0.6696                 0.9582
 IR Inten    --      0.0062                 0.0065                 0.0348

                     40                     41                     42
                      A                      A                      A
 Frequencies --   1093.7921              1094.4526              1094.7749
 Red. masses --      1.3596                 1.3578                 1.3561
 Frc consts  --      0.9584                 0.9583                 0.9576
 IR Inten    --      0.0071                 0.0190                 0.0171

                     43                     44                     45
                      A                      A                      A
 Frequencies --   1296.1077              1296.7157              1298.3440
 Red. masses --      2.4709                 2.4935                 2.5096
 Frc consts  --      2.4457                 2.4703                 2.4925
 IR Inten    --     10.2522                 2.6679                 0.6469

                     46                     47                     48
                      A                      A                      A
 Frequencies --   1298.6257              1299.4925              1299.6215
 Red. masses --      2.4779                 2.5070                 2.4964
 Frc consts  --      2.4621                 2.4943                 2.4842
 IR Inten    --      4.4034                 6.5417                 8.9717

                     49                     50                     51
                      A                      A                      A
 Frequencies --   1408.1835              1408.8842              1409.3484
 Red. masses --      1.3180                 1.3015                 1.3039
 Frc consts  --      1.5398                 1.5221                 1.5260
 IR Inten    --     22.0720                17.3530                20.0442

                     52                     53                     54
                      A                      A                      A
 Frequencies --   1410.2088              1410.5369              1411.7043
 Red. masses --      1.3079                 1.3069                 1.2993
 Frc consts  --      1.5325                 1.5321                 1.5256
 IR Inten    --      0.5692                 2.3792                 3.2450

                     55                     56                     57
                      A                      A                      A
 Frequencies --   1442.1505              1443.7122              1471.6255
 Red. masses --      1.2327                 1.2334                 1.0455
 Frc consts  --      1.5105                 1.5147                 1.3340
 IR Inten    --      2.4079                 0.0536                 0.5296

                     58                     59                     60
                      A                      A                      A
 Frequencies --   1474.3660              1475.8611              1476.1202
 Red. masses --      1.0466                 1.0456                 1.0455
 Frc consts  --      1.3404                 1.3419                 1.3422
 IR Inten    --      0.1000                 0.0942                 0.4082

                     61                     62                     63
                      A                      A                      A
 Frequencies --   1476.3651              1478.8312              1481.6055
 Red. masses --      1.0461                 1.0451                 1.0404
 Frc consts  --      1.3435                 1.3466                 1.3455
 IR Inten    --      0.0703                 0.0400                 2.8966

                     64                     65                     66
                      A                      A                      A
 Frequencies --   1483.1194              1483.7020              1486.7615
 Red. masses --      1.0393                 1.0389                 1.0416
 Frc consts  --      1.3470                 1.3475                 1.3566
 IR Inten    --      0.0005                 0.2805                 0.1556

                     67                     68                     69
                      A                      A                      A
 Frequencies --   1509.3788              1510.7563              1512.4742
 Red. masses --      1.0772                 1.0742                 1.0749
 Frc consts  --      1.4460                 1.4445                 1.4488
 IR Inten    --      4.3776                23.3032                 1.6694

                     70                     71                     72
                      A                      A                      A
 Frequencies --   1512.7652              1516.7751              1519.2363
 Red. masses --      1.0753                 1.0753                 1.0726
 Frc consts  --      1.4499                 1.4576                 1.4586
 IR Inten    --     26.6922                19.5727                 3.5887

                     73                     74                     75
                      A                      A                      A
 Frequencies --   3017.4193              3017.4878              3018.8804
 Red. masses --      1.0368                 1.0368                 1.0369
 Frc consts  --      5.5617                 5.5619                 5.5677
 IR Inten    --     40.4916                28.1684                63.0513

                     76                     77                     78
                      A                      A                      A
 Frequencies --   3019.5073              3021.5290              3022.9863
 Red. masses --      1.0371                 1.0373                 1.0373
 Frc consts  --      5.5709                 5.5795                 5.5850
 IR Inten    --      6.8603                24.3932                37.3676

                     79                     80                     81
                      A                      A                      A
 Frequencies --   3028.0720              3029.0338              3109.3151
 Red. masses --      1.0386                 1.0387                 1.1055
 Frc consts  --      5.6109                 5.6150                 6.2969
 IR Inten    --      0.5851                 2.5543                 0.6740

                     82                     83                     84
                      A                      A                      A
 Frequencies --   3109.6582              3109.9873              3110.1662
 Red. masses --      1.1054                 1.1051                 1.1052
 Frc consts  --      6.2977                 6.2975                 6.2987
 IR Inten    --      0.3963                 4.2065                 2.5875

                     85                     86                     87
                      A                      A                      A
 Frequencies --   3110.7350              3110.8026              3110.9445
 Red. masses --      1.1050                 1.1052                 1.1048
 Frc consts  --      6.3000                 6.3011                 6.2994
 IR Inten    --      3.0697                 0.8029                 4.0461

                     88                     89                     90
                      A                      A                      A
 Frequencies --   3111.2943              3114.3207              3114.7892
 Red. masses --      1.1046                 1.1037                 1.1036
 Frc consts  --      6.3001                 6.3071                 6.3085
 IR Inten    --      3.4508               114.1160                 6.7557

                     91                     92                     93
                      A                      A                      A
 Frequencies --   3114.9265              3115.2973              3117.0069
 Red. masses --      1.1038                 1.1036                 1.1036
 Frc consts  --      6.3103                 6.3106                 6.3173
 IR Inten    --     36.8151                90.4974                90.1945

                     94                     95                     96
                      A                      A                      A
 Frequencies --   3121.8109              3126.2971              3131.1130
 Red. masses --      1.1029                 1.1034                 1.1022
 Frc consts  --      6.3331                 6.3537                 6.3669
 IR Inten    --      0.0520                29.5787                14.3994

 Optimization completed.
    -- Stationary point found.
 Normal termination of Gaussian 16 at Tue Sep 13 12:46:35 2022.
