 Gaussian 16, Revision B.01,
 Gaussian 16:  ES64L-G16RevB.01 20-Dec-2017

 ----------------------------------------------------------------------
 #T wB97XD/def2svpp opt=tight freq int(grid=ultrafine) scf=(verytight,q
 c) Volume=tight
 ----------------------------------------------------------------------
 -------
 Monomer
 -------
 Symbolic Z-matrix:
 Charge =  0 Multiplicity = 1

 SCF Done:  E(RwB97XD) =  -268.842016859     a.u. after    7 cycles
 SCF Done:  E(RwB97XD) =  -268.844049017     a.u. after    7 cycles
 SCF Done:  E(RwB97XD) =  -268.844206443     a.u. after    5 cycles
 SCF Done:  E(RwB97XD) =  -268.844238485     a.u. after    5 cycles
 SCF Done:  E(RwB97XD) =  -268.844260437     a.u. after    4 cycles
 SCF Done:  E(RwB97XD) =  -268.844266714     a.u. after    3 cycles
 SCF Done:  E(RwB97XD) =  -268.844267315     a.u. after    2 cycles
 SCF Done:  E(RwB97XD) =  -268.844267463     a.u. after    2 cycles
 SCF Done:  E(RwB97XD) =  -268.844267475     a.u. after    2 cycles
 SCF Done:  E(RwB97XD) =  -268.844267486     a.u. after    2 cycles
 SCF Done:  E(RwB97XD) =  -268.844267487     a.u. after    2 cycles
 Optimization completed.
    -- Stationary point found.

 1\1\GINC-C041\FOpt\RwB97XD\def2SVPP\C4H12N2\PETERCHAO1\06-Feb-2023\0\\
 #T wB97XD/def2svpp opt=tight freq int(grid=ultrafine) scf=(verytight,q
 c) Volume=tight\\Monomer\\0,1\C,-0.5444628943,1.417927543,0.526981201\
 C,-0.4405341588,-0.0109740839,-0.0090112479\C,-1.6353240095,-0.8430371
 171,0.4795956038\N,-0.3674160027,0.0633273332,-1.4719992095\C,0.873516
 7416,-0.6778184308,0.4689688856\N,2.1035884691,-0.0282092009,0.0701413
 221\H,-0.5348959747,1.4276945982,1.630897202\H,-1.4836424771,1.8971839
 881,0.1947716755\H,0.2943124378,2.0316185867,0.1589421527\H,-1.6794715

 Normal termination of Gaussian 16 at Mon Feb  6 10:19:10 2023.

 ---------------------------------------------------------------------
 #T Geom=AllCheck Guess=TCheck SCRF=Check GenChk RwB97XD/def2SVPP Freq
 ---------------------------------------------------------------------
 Structure from the checkpoint file:  "39.chk"
 -------
 Monomer
 -------
 Charge =  0 Multiplicity = 1

                         Standard orientation:
 ---------------------------------------------------------------------
 Center     Atomic      Atomic             Coordinates (Angstroms)
 Number     Number       Type             X           Y           Z
 ---------------------------------------------------------------------
      1          6           0        0.447450    1.481337   -0.386026
      2          6           0        0.411903    0.005036    0.012875
      3          6           0        1.637241   -0.722885   -0.559196
      4          7           0        0.350187   -0.062332    1.476724
      5          6           0       -0.876211   -0.671930   -0.518497
      6          7           0       -2.129656   -0.118577   -0.052870
      7          1           0        0.426446    1.594743   -1.483985
      8          1           0        1.367881    1.968701   -0.015362
      9          1           0       -0.413823    2.019396    0.043294
     10          1           0        1.672346   -0.662277   -1.661940
     11          1           0        1.620846   -1.792906   -0.281242
     12          1           0        2.571899   -0.284194   -0.164820
     13          1           0        0.451656   -1.028592    1.792331
     14          1           0        1.111994    0.470524    1.897840
     15          1           0       -0.836275   -1.740085   -0.225121
     16          1           0       -0.865113   -0.658977   -1.623198
     17          1           0       -2.317652    0.781480   -0.492280
     18          1           0       -2.056209    0.049198    0.952557
 ---------------------------------------------------------------------

 SCF Done:  E(RwB97XD) =  -268.844267487     a.u. after    1 cycles

 The electronic state is 1-A.
 Alpha  occ. eigenvalues --  -14.41656 -14.39949 -10.32578 -10.30414 -10.28255
 Alpha  occ. eigenvalues --  -10.28238  -0.99525  -0.94639  -0.84557  -0.77938
 Alpha  occ. eigenvalues --   -0.74228  -0.64222  -0.58647  -0.57063  -0.53723
 Alpha  occ. eigenvalues --   -0.52978  -0.51210  -0.47478  -0.46360  -0.45233
 Alpha  occ. eigenvalues --   -0.43788  -0.42814  -0.41390  -0.32201  -0.30216
 Alpha virt. eigenvalues --    0.11948   0.16199   0.17558   0.17670   0.18492
 Alpha virt. eigenvalues --    0.20499   0.21100   0.23064   0.23744   0.25245
 Alpha virt. eigenvalues --    0.26087   0.28018   0.29289   0.31299   0.33080

 Mulliken charges:
               1
     1  C   -0.281303
     2  C   -0.149697
     3  C   -0.259379
     4  N   -0.494266
     5  C   -0.038754
     6  N   -0.501287
     7  H    0.113866
     8  H    0.110315
     9  H    0.112197
    10  H    0.111148
    11  H    0.107479
    12  H    0.106895
    13  H    0.216193
    14  H    0.217305
    15  H    0.088940
    16  H    0.096192
    17  H    0.216850
    18  H    0.227308
 Sum of Mulliken charges =  -0.00000

 Dipole moment (field-independent basis, Debye):
    X=              2.1711    Y=              0.5566    Z=              0.2027  Tot=              2.2505
  Exact polarizability:  58.460  -1.073  56.772  -0.100  -0.389  55.114
 Approx polarizability:  58.129  -0.408  58.993   0.080  -0.680  59.874
   1 Symmetry operations used in ECPInt.
 ECPInt:  NShTT=    1830 NPrTT=    7374 LenC2=    1828 LenP2D=    6149.
 LDataN:  DoStor=T MaxTD1= 6 Len=  172
 Calling FoFJK, ICntrl=    100127 FMM=F ISym2X=0 I1Cent= 0 IOpClX= 0 NMat=1 NMatS=1 NMatT=0.
 Full mass-weighted force constant matrix:
 Low frequencies ---   -2.7110   -0.0003    0.0007    0.0009    6.4894    7.4033
 Low frequencies ---  143.9630  241.8374  249.7201
 Diagonal vibrational polarizability:

                      1                      2                      3
                      A                      A                      A
 Frequencies --    143.9600               241.8371               249.7194
 Red. masses --      2.1686                 1.0599                 2.3323
 Frc consts  --      0.0265                 0.0365                 0.0857
 IR Inten    --      0.7084                 7.8275                 7.7023

                      4                      5                      6
                      A                      A                      A
 Frequencies --    276.7608               310.6043               333.1198
 Red. masses --      1.1192                 1.0588                 1.4612
 Frc consts  --      0.0505                 0.0602                 0.0955
 IR Inten    --      5.5405                30.9897                15.0611

                      7                      8                      9
                      A                      A                      A
 Frequencies --    355.1045               394.7074               428.8157
 Red. masses --      1.9699                 1.8775                 2.0070
 Frc consts  --      0.1464                 0.1723                 0.2174
 IR Inten    --      8.4905                25.5575                 3.8882

                     10                     11                     12
                      A                      A                      A
 Frequencies --    461.6672               552.8234               759.3377
 Red. masses --      2.2280                 2.5257                 3.0091
 Frc consts  --      0.2798                 0.4548                 1.0223
 IR Inten    --      4.9431                16.9192                29.8028

                     13                     14                     15
                      A                      A                      A
 Frequencies --    863.8374               880.4437               923.3767
 Red. masses --      1.4898                 1.4669                 1.4250
 Frc consts  --      0.6550                 0.6700                 0.7159
 IR Inten    --     93.8059                11.9669               177.7150

                     16                     17                     18
                      A                      A                      A
 Frequencies --    937.0703               956.7924               994.3571
 Red. masses --      1.6392                 1.4256                 1.6713
 Frc consts  --      0.8481                 0.7689                 0.9736
 IR Inten    --     81.2995                48.4360                 3.6081

                     19                     20                     21
                      A                      A                      A
 Frequencies --   1029.4835              1112.1188              1145.8532
 Red. masses --      1.3264                 1.5393                 1.4532
 Frc consts  --      0.8283                 1.1217                 1.1242
 IR Inten    --      3.8635                 7.0315                 6.5989

                     22                     23                     24
                      A                      A                      A
 Frequencies --   1180.0028              1230.7212              1309.0525
 Red. masses --      2.2126                 2.4551                 2.6207
 Frc consts  --      1.8152                 2.1910                 2.6459
 IR Inten    --      8.6603                27.6017                14.9961

                     25                     26                     27
                      A                      A                      A
 Frequencies --   1363.6215              1392.4861              1407.7124
 Red. masses --      1.6848                 1.2797                 1.3196
 Frc consts  --      1.8459                 1.4620                 1.5407
 IR Inten    --      0.8981                 6.0805                 2.6710

                     28                     29                     30
                      A                      A                      A
 Frequencies --   1416.3479              1428.4320              1476.1535
 Red. masses --      1.3260                 1.3775                 1.0739
 Frc consts  --      1.5673                 1.6560                 1.3787
 IR Inten    --     10.4406                12.8525                 0.5582

                     31                     32                     33
                      A                      A                      A
 Frequencies --   1479.8465              1486.5111              1498.8286
 Red. masses --      1.0505                 1.0771                 1.0859
 Frc consts  --      1.3554                 1.4023                 1.4373
 IR Inten    --      0.3547                 3.6809                 5.9695

                     34                     35                     36
                      A                      A                      A
 Frequencies --   1508.1011              1665.2220              1679.9432
 Red. masses --      1.0745                 1.1029                 1.0945
 Frc consts  --      1.4399                 1.8019                 1.8199
 IR Inten    --     13.5609                36.1196                21.6935

                     37                     38                     39
                      A                      A                      A
 Frequencies --   3012.8898              3018.0288              3030.5901
 Red. masses --      1.0610                 1.0430                 1.0391
 Frc consts  --      5.6748                 5.5976                 5.6231
 IR Inten    --     27.0420                50.6578                13.8006

                     40                     41                     42
                      A                      A                      A
 Frequencies --   3088.2917              3108.7187              3113.0049
 Red. masses --      1.1013                 1.1047                 1.1044
 Frc consts  --      6.1888                 6.2899                 6.3055
 IR Inten    --     21.7003                25.6219                 6.8474

                     43                     44                     45
                      A                      A                      A
 Frequencies --   3117.5615              3139.7963              3478.5697
 Red. masses --      1.1031                 1.1045                 1.0509
 Frc consts  --      6.3170                 6.4151                 7.4922
 IR Inten    --     45.4351                17.7837                 0.0952

                     46                     47                     48
                      A                      A                      A
 Frequencies --   3484.8546              3563.4424              3574.7234
 Red. masses --      1.0514                 1.0932                 1.0920
 Frc consts  --      7.5228                 8.1785                 8.2213
 IR Inten    --      4.2086                 0.6153                 5.4487

 Optimization completed.
    -- Stationary point found.

 1\1\GINC-C041\Freq\RwB97XD\def2SVPP\C4H12N2\PETERCHAO1\06-Feb-2023\0\\
 #T Geom=AllCheck Guess=TCheck SCRF=Check GenChk RwB97XD/def2SVPP Freq\
 \Monomer\\0,1\C,-0.5444628943,1.417927543,0.526981201\C,-0.4405341588,
 -0.0109740839,-0.0090112479\C,-1.6353240095,-0.8430371171,0.4795956038
 \N,-0.3674160027,0.0633273332,-1.4719992095\C,0.8735167416,-0.67781843
 08,0.4689688856\N,2.1035884691,-0.0282092009,0.0701413221\H,-0.5348959
 747,1.4276945982,1.630897202\H,-1.4836424771,1.8971839881,0.1947716755
 \H,0.2943124378,2.0316185867,0.1589421527\H,-1.6794715036,-0.888703802

 Normal termination of Gaussian 16 at Mon Feb  6 10:20:19 2023.
