 Gaussian 16, Revision B.01,
 Gaussian 16:  ES64L-G16RevB.01 20-Dec-2017

 ----------------------------------------------------------------------
 #T wB97XD/def2svpp opt=tight freq int(grid=ultrafine) scf=(verytight,q
 c) Volume=tight
 ----------------------------------------------------------------------
 -----
 Dimer
 -----
 Symbolic Z-matrix:
 Charge =  0 Multiplicity = 1

 SCF Done:  E(RwB97XD) =  -466.815459430     a.u. after    7 cycles
 SCF Done:  E(RwB97XD) =  -466.817211954     a.u. after   11 cycles
 SCF Done:  E(RwB97XD) =  -466.813711190     a.u. after   13 cycles
 SCF Done:  E(RwB97XD) =  -466.818215745     a.u. after    8 cycles
 SCF Done:  E(RwB97XD) =  -466.819097408     a.u. after   11 cycles
 SCF Done:  E(RwB97XD) =  -466.819498597     a.u. after    9 cycles
 SCF Done:  E(RwB97XD) =  -466.819456321     a.u. after    9 cycles
 SCF Done:  E(RwB97XD) =  -466.819566333     a.u. after    9 cycles
 SCF Done:  E(RwB97XD) =  -466.819655184     a.u. after    6 cycles
 SCF Done:  E(RwB97XD) =  -466.819695128     a.u. after    5 cycles
 SCF Done:  E(RwB97XD) =  -466.819727865     a.u. after    2 cycles
 SCF Done:  E(RwB97XD) =  -466.819727867     a.u. after    2 cycles
 SCF Done:  E(RwB97XD) =  -466.819727869     a.u. after    2 cycles
 SCF Done:  E(RwB97XD) =  -466.819727869     a.u. after    2 cycles
 SCF Done:  E(RwB97XD) =  -466.819727869     a.u. after    2 cycles
 SCF Done:  E(RwB97XD) =  -466.819727869     a.u. after    2 cycles
 SCF Done:  E(RwB97XD) =  -466.819727869     a.u. after    2 cycles
 SCF Done:  E(RwB97XD) =  -466.819727869     a.u. after    2 cycles
 SCF Done:  E(RwB97XD) =  -466.819727869     a.u. after    2 cycles
 Optimization completed.
    -- Stationary point found.

 1\1\GINC-C141\FOpt\RwB97XD\def2SVPP\C8H20O2\PETERCHAO1\01-Apr-2024\0\\
 #T wB97XD/def2svpp opt=tight freq int(grid=ultrafine) scf=(verytight,q
 c) Volume=tight\\Dimer\\0,1\C,3.294847108,-0.6036049632,0.5839108898\C
 ,2.1365019912,0.3347010982,0.2408006324\C,2.5874919057,1.7945457116,0.
 201009749\C,1.4776564045,-0.0407776912,-1.0876642871\O,0.9065865013,-1
 .337957303,-1.0975889889\H,4.0833985467,-0.5669454946,-0.1918856491\H,
 2.9582546383,-1.650479077,0.6902823197\H,3.7575798102,-0.3222769171,1.
 5451612735\H,1.36113393,0.2228987034,1.019500387\H,1.7389681484,2.4705

 Normal termination of Gaussian 16 at Mon Apr  1 15:33:05 2024.

 ---------------------------------------------------------------------
 #T Geom=AllCheck Guess=TCheck SCRF=Check GenChk RwB97XD/def2SVPP Freq
 ---------------------------------------------------------------------
 Structure from the checkpoint file:  "dimer.chk"
 -----
 Dimer
 -----
 Charge =  0 Multiplicity = 1

                         Standard orientation:
 ---------------------------------------------------------------------
 Center     Atomic      Atomic             Coordinates (Angstroms)
 Number     Number       Type             X           Y           Z
 ---------------------------------------------------------------------
      1          6           0       -3.295618   -0.643811   -0.520200
      2          6           0       -2.133388    0.301237   -0.210341
      3          6           0       -2.585552    1.761090   -0.188009
      4          6           0       -1.454039   -0.051410    1.114048
      5          8           0       -0.881260   -1.347672    1.136893
      6          1           0       -4.072381   -0.595027    0.266741
      7          1           0       -2.959363   -1.691974   -0.614232
      8          1           0       -3.773200   -0.378991   -1.478874
      9          1           0       -1.369756    0.177259   -0.998735
     10          1           0       -1.734845    2.441282   -0.005569
     11          1           0       -3.337523    1.936173    0.603920
     12          1           0       -3.041491    2.046433   -1.151364
     13          1           0       -2.170293    0.062201    1.953948
     14          1           0       -0.616986    0.640126    1.301345
     15          1           0       -1.582634   -2.012245    1.104459
     16          6           0        3.718783    0.361350    0.623559
     17          6           0        2.252230    0.214149    0.217824
     18          6           0        1.697185    1.514342   -0.362935
     19          6           0        2.077608   -0.957026   -0.757372
     20          8           0        0.748757   -1.195907   -1.125650
     21          1           0        4.348461    0.594630   -0.255178
     22          1           0        4.108065   -0.565723    1.080694
     23          1           0        3.850296    1.178178    1.354474
     24          1           0        1.671616   -0.038794    1.127068
     25          1           0        2.283845    1.827393   -1.246686
     26          1           0        1.738624    2.333651    0.376941
     27          1           0        0.650989    1.390959   -0.688028
     28          1           0        2.539531   -1.864767   -0.311426
     29          1           0        2.631911   -0.740863   -1.689444
     30          1           0        0.231904   -1.390793   -0.319454
 ---------------------------------------------------------------------

 SCF Done:  E(RwB97XD) =  -466.819727869     a.u. after    1 cycles

 The electronic state is 1-A.
 Alpha  occ. eigenvalues --  -19.27671 -19.21854 -10.34546 -10.31660 -10.29936
 Alpha  occ. eigenvalues --  -10.29152 -10.28770 -10.28612 -10.27654 -10.27245
 Alpha  occ. eigenvalues --   -1.13464  -1.08427  -0.90055  -0.88209  -0.78586
 Alpha  occ. eigenvalues --   -0.77234  -0.76540  -0.74490  -0.66575  -0.65398
 Alpha  occ. eigenvalues --   -0.62110  -0.57065  -0.55519  -0.54831  -0.54283
 Alpha  occ. eigenvalues --   -0.52942  -0.52158  -0.48612  -0.48295  -0.47448
 Alpha  occ. eigenvalues --   -0.46875  -0.46752  -0.46000  -0.44035  -0.43088
 Alpha  occ. eigenvalues --   -0.42648  -0.41300  -0.40955  -0.40330  -0.38004
 Alpha  occ. eigenvalues --   -0.36601  -0.32830
 Alpha virt. eigenvalues --    0.11509   0.13564   0.14751   0.16759   0.17004
 Alpha virt. eigenvalues --    0.18265   0.19069   0.19542   0.20024   0.21176
 Alpha virt. eigenvalues --    0.21734   0.22628   0.22931   0.23786   0.24474

 Mulliken charges:
               1
     1  C   -0.323060
     2  C   -0.251905
     3  C   -0.312067
     4  C    0.008164
     5  O   -0.496947
     6  H    0.109759
     7  H    0.111311
     8  H    0.131464
     9  H    0.144249
    10  H    0.126819
    11  H    0.109791
    12  H    0.126240
    13  H    0.096703
    14  H    0.125199
    15  H    0.334293
    16  C   -0.303541
    17  C   -0.260888
    18  C   -0.315222
    19  C    0.050396
    20  O   -0.515165
    21  H    0.109908
    22  H    0.116837
    23  H    0.116927
    24  H    0.101068
    25  H    0.107905
    26  H    0.111673
    27  H    0.140806
    28  H    0.082765
    29  H    0.085367
    30  H    0.331152
 Sum of Mulliken charges =  -0.00000

 Dipole moment (field-independent basis, Debye):
    X=             -1.9006    Y=              0.1991    Z=              1.6415  Tot=              2.5192
  Exact polarizability: 108.026  -0.205  93.162   0.589   0.143  85.642
 Approx polarizability:  99.713   0.447  96.017  -1.601  -0.165  94.954
   1 Symmetry operations used in ECPInt.
 ECPInt:  NShTT=    5050 NPrTT=   20290 LenC2=    4964 LenP2D=   14908.
 LDataN:  DoStor=T MaxTD1= 6 Len=  172
 Calling FoFJK, ICntrl=    100127 FMM=F ISym2X=0 I1Cent= 0 IOpClX= 0 NMat=1 NMatS=1 NMatT=0.
 Full mass-weighted force constant matrix:
 Low frequencies ---  -10.2035   -4.6656   -0.0008   -0.0006   -0.0004    2.4691
 Low frequencies ---   37.1224   55.2311   67.2023
 Diagonal vibrational polarizability:

                      1                      2                      3
                      A                      A                      A
 Frequencies --     37.0538                55.2276                67.1973
 Red. masses --      3.3279                 2.9008                 2.6117
 Frc consts  --      0.0027                 0.0052                 0.0069
 IR Inten    --      0.4084                 1.5133                 1.8541

                      4                      5                      6
                      A                      A                      A
 Frequencies --     68.9579                94.3505               145.0197
 Red. masses --      3.7440                 3.6036                 2.8315
 Frc consts  --      0.0105                 0.0189                 0.0351
 IR Inten    --      0.9508                 1.6554                 0.8750

                      7                      8                      9
                      A                      A                      A
 Frequencies --    163.5096               206.9580               231.5827
 Red. masses --      2.0867                 2.2279                 1.0952
 Frc consts  --      0.0329                 0.0562                 0.0346
 IR Inten    --      8.4809                 1.4142                 0.4508

                     10                     11                     12
                      A                      A                      A
 Frequencies --    235.0480               252.8923               259.4249
 Red. masses --      1.3308                 1.4516                 1.1383
 Frc consts  --      0.0433                 0.0547                 0.0451
 IR Inten    --      1.4316                 1.9870                 2.1561

                     13                     14                     15
                      A                      A                      A
 Frequencies --    283.4878               286.2189               360.4766
 Red. masses --      1.7692                 2.5892                 2.0116
 Frc consts  --      0.0838                 0.1250                 0.1540
 IR Inten    --      2.8847                 1.1970                22.6201

                     16                     17                     18
                      A                      A                      A
 Frequencies --    362.0217               386.4183               430.4498
 Red. masses --      2.1302                 1.2745                 1.8390
 Frc consts  --      0.1645                 0.1121                 0.2008
 IR Inten    --      7.1632                96.2920                 5.2261

                     19                     20                     21
                      A                      A                      A
 Frequencies --    435.3258               506.8095               511.8894
 Red. masses --      1.8856                 3.4494                 3.3725
 Frc consts  --      0.2105                 0.5220                 0.5207
 IR Inten    --      1.5823                 6.6682                11.6323

                     22                     23                     24
                      A                      A                      A
 Frequencies --    767.0746               835.9879               839.3445
 Red. masses --      1.0538                 2.4313                 2.5313
 Frc consts  --      0.3653                 1.0011                 1.0507
 IR Inten    --    127.3450                14.8750                 6.4813

                     25                     26                     27
                      A                      A                      A
 Frequencies --    920.8311               925.8175               943.9364
 Red. masses --      1.2746                 1.3617                 1.1937
 Frc consts  --      0.6368                 0.6877                 0.6267
 IR Inten    --      9.7870                 7.2812                 2.7517

                     28                     29                     30
                      A                      A                      A
 Frequencies --    948.6345               967.6622               970.5394
 Red. masses --      1.2179                 1.6714                 1.4955
 Frc consts  --      0.6457                 0.9221                 0.8300
 IR Inten    --      0.3585                 4.9409                 2.6414

                     31                     32                     33
                      A                      A                      A
 Frequencies --    986.8795               988.7833              1115.5155
 Red. masses --      1.4437                 1.5573                 5.1425
 Frc consts  --      0.8284                 0.8970                 3.7703
 IR Inten    --      0.5910                 2.8233               120.6060

                     34                     35                     36
                      A                      A                      A
 Frequencies --   1142.8002              1150.4428              1164.0718
 Red. masses --      1.4348                 3.2864                 1.6504
 Frc consts  --      1.1040                 2.5627                 1.3177
 IR Inten    --     23.6903               112.3654                 5.4485

                     37                     38                     39
                      A                      A                      A
 Frequencies --   1179.9769              1182.0734              1213.0057
 Red. masses --      2.0424                 2.2910                 1.7119
 Frc consts  --      1.6755                 1.8861                 1.4840
 IR Inten    --      2.3297                 9.4908                 0.0869

                     40                     41                     42
                      A                      A                      A
 Frequencies --   1216.9818              1255.8580              1284.4818
 Red. masses --      1.7487                 1.4324                 1.3136
 Frc consts  --      1.5259                 1.3311                 1.2769
 IR Inten    --      3.1721                18.9050                 9.1381

                     43                     44                     45
                      A                      A                      A
 Frequencies --   1348.4071              1351.3142              1381.5475
 Red. masses --      1.2576                 1.2708                 1.2517
 Frc consts  --      1.3472                 1.3673                 1.4076
 IR Inten    --      1.2021                 1.9667                 2.1564

                     46                     47                     48
                      A                      A                      A
 Frequencies --   1385.8143              1404.9259              1415.8433
 Red. masses --      1.2532                 1.1899                 1.4386
 Frc consts  --      1.4180                 1.3838                 1.6991
 IR Inten    --      1.4981                10.0485                 5.5016

                     49                     50                     51
                      A                      A                      A
 Frequencies --   1422.7320              1425.7687              1426.9927
 Red. masses --      1.3104                 1.3202                 1.4093
 Frc consts  --      1.5628                 1.5812                 1.6908
 IR Inten    --      0.3160                 4.6833                16.3834

                     52                     53                     54
                      A                      A                      A
 Frequencies --   1439.5013              1446.6740              1475.6504
 Red. masses --      1.3637                 1.3234                 1.1747
 Frc consts  --      1.6650                 1.6319                 1.5071
 IR Inten    --     11.7493                45.2325                52.0023

                     55                     56                     57
                      A                      A                      A
 Frequencies --   1481.5623              1482.9021              1484.7488
 Red. masses --      1.0564                 1.0492                 1.0732
 Frc consts  --      1.3662                 1.3594                 1.3939
 IR Inten    --      5.6954                 3.4448                 0.8754

                     58                     59                     60
                      A                      A                      A
 Frequencies --   1492.1792              1497.3636              1499.8752
 Red. masses --      1.0570                 1.0596                 1.0704
 Frc consts  --      1.3867                 1.3997                 1.4187
 IR Inten    --      6.5925                13.0793                 3.6172

                     61                     62                     63
                      A                      A                      A
 Frequencies --   1502.0126              1508.9319              1511.2042
 Red. masses --      1.0714                 1.0699                 1.0845
 Frc consts  --      1.4242                 1.4352                 1.4592
 IR Inten    --     14.5671                14.1108                12.0699

                     64                     65                     66
                      A                      A                      A
 Frequencies --   1514.7170              2976.0675              3008.0732
 Red. masses --      1.0792                 1.0695                 1.0707
 Frc consts  --      1.4589                 5.5809                 5.7080
 IR Inten    --      2.0892                99.5808                49.5240

                     67                     68                     69
                      A                      A                      A
 Frequencies --   3017.9966              3021.7320              3023.9869
 Red. masses --      1.0396                 1.0382                 1.0394
 Frc consts  --      5.5789                 5.5850                 5.6002
 IR Inten    --     28.9351                34.1603                22.8466

                     70                     71                     72
                      A                      A                      A
 Frequencies --   3025.9622              3026.8121              3071.4413
 Red. masses --      1.0785                 1.0451                 1.0867
 Frc consts  --      5.8181                 5.6413                 6.0402
 IR Inten    --      4.0698                28.0831                 0.0703

                     73                     74                     75
                      A                      A                      A
 Frequencies --   3072.4573              3106.1295              3107.9726
 Red. masses --      1.0984                 1.1038                 1.1043
 Frc consts  --      6.1094                 6.2746                 6.2850
 IR Inten    --     49.5896                18.7453                 9.0575

                     76                     77                     78
                      A                      A                      A
 Frequencies --   3112.1708              3113.0190              3121.1529
 Red. masses --      1.1032                 1.1027                 1.1046
 Frc consts  --      6.2957                 6.2964                 6.3401
 IR Inten    --     44.8979                30.4523                24.3415

                     79                     80                     81
                      A                      A                      A
 Frequencies --   3123.5846              3125.9195              3127.9897
 Red. masses --      1.1010                 1.1007                 1.1039
 Frc consts  --      6.3289                 6.3371                 6.3639
 IR Inten    --     14.2073                29.2311                27.9693

                     82                     83                     84
                      A                      A                      A
 Frequencies --   3141.3664              3579.0929              3779.7566
 Red. masses --      1.1016                 1.0675                 1.0660
 Frc consts  --      6.4048                 8.0569                 8.9726
 IR Inten    --     16.1864               448.4935                38.7202

                           ! Non-Optimized Parameters !

 1\1\GINC-C141\Freq\RwB97XD\def2SVPP\C8H20O2\PETERCHAO1\01-Apr-2024\0\\
 #T Geom=AllCheck Guess=TCheck SCRF=Check GenChk RwB97XD/def2SVPP Freq\
 \Dimer\\0,1\C,3.294847108,-0.6036049632,0.5839108898\C,2.1365019912,0.
 3347010982,0.2408006324\C,2.5874919057,1.7945457116,0.201009749\C,1.47
 76564045,-0.0407776912,-1.0876642871\O,0.9065865013,-1.337957303,-1.09
 75889889\H,4.0833985467,-0.5669454946,-0.1918856491\H,2.9582546383,-1.
 650479077,0.6902823197\H,3.7575798102,-0.3222769171,1.5451612735\H,1.3
 6113393,0.2228987034,1.019500387\H,1.7389681484,2.4705428266,-0.005587

 Normal termination of Gaussian 16 at Mon Apr  1 15:37:59 2024.
