 Gaussian 16, Revision B.01,
 Gaussian 16:  ES64L-G16RevB.01 20-Dec-2017

 ----------------------------------------------------------------------
 #T wB97XD/def2svpp opt=tight freq int(grid=ultrafine) scf=(verytight,q
 c)
 ----------------------------------------------------------------------
 -------
 comment
 -------
 Symbolic Z-matrix:
 Charge =  1 Multiplicity = 2

 SCF Done:  E(UwB97XD) =  -545.688636821     a.u. after   10 cycles
 SCF Done:  E(UwB97XD) =  -545.698346175     a.u. after   12 cycles
 SCF Done:  E(UwB97XD) =  -545.703724509     a.u. after   17 cycles
 SCF Done:  E(UwB97XD) =  -545.705606544     a.u. after    9 cycles
 SCF Done:  E(UwB97XD) =  -545.706320341     a.u. after    9 cycles
 SCF Done:  E(UwB97XD) =  -545.706390312     a.u. after    7 cycles
 SCF Done:  E(UwB97XD) =  -545.706467966     a.u. after    5 cycles
 SCF Done:  E(UwB97XD) =  -545.706500764     a.u. after    4 cycles
 SCF Done:  E(UwB97XD) =  -545.706518880     a.u. after    4 cycles
 SCF Done:  E(UwB97XD) =  -545.706533773     a.u. after    4 cycles
 SCF Done:  E(UwB97XD) =  -545.706543243     a.u. after    4 cycles
 SCF Done:  E(UwB97XD) =  -545.706545747     a.u. after    3 cycles
 SCF Done:  E(UwB97XD) =  -545.706546105     a.u. after    2 cycles
 SCF Done:  E(UwB97XD) =  -545.706546111     a.u. after    2 cycles
 SCF Done:  E(UwB97XD) =  -545.706546106     a.u. after    2 cycles
 SCF Done:  E(UwB97XD) =  -545.706546125     a.u. after    2 cycles
 SCF Done:  E(UwB97XD) =  -545.706546103     a.u. after    2 cycles
 Optimization completed.
    -- Stationary point found.
 Normal termination of Gaussian 16 at Mon Jul 10 19:40:44 2023.

 ---------------------------------------------------------------------
 #T Geom=AllCheck Guess=TCheck SCRF=Check GenChk UwB97XD/def2SVPP Freq
 ---------------------------------------------------------------------
 Structure from the checkpoint file:  "31.chk"
 -------
 comment
 -------
 Charge =  1 Multiplicity = 2

                         Standard orientation:
 ---------------------------------------------------------------------
 Center     Atomic      Atomic             Coordinates (Angstroms)
 Number     Number       Type             X           Y           Z
 ---------------------------------------------------------------------
      1          8           0        1.494228   -0.491762   -1.656589
      2          6           0        0.749294    0.569685   -1.169441
      3          6           0        0.015394    0.146722    0.078962
      4          6           0       -1.007783   -1.173861   -0.542421
      5          8           0       -1.523235   -1.884352    0.446662
      6          6           0        0.910849   -0.493337    1.145774
      7          9           0        1.835156    0.441862    1.492738
      8          6           0       -0.933227    1.182017    0.637385
      9          9           0       -1.653154    1.760581   -0.359509
     10          1           0        1.908953   -0.274065   -2.505467
     11          1           0        0.060093    1.004266   -1.917407
     12          1           0        1.401474    1.404414   -0.811921
     13          1           0       -0.237712   -1.662743   -1.172041
     14          1           0       -1.786200   -0.580103   -1.044845
     15          1           0       -0.968701   -2.641151    0.720240
     16          1           0        1.429886   -1.379568    0.742995
     17          1           0        0.319022   -0.764132    2.038036
     18          1           0       -0.321252    1.953205    1.148159
     19          1           0       -1.618686    0.739446    1.381046
 ---------------------------------------------------------------------

 SCF Done:  E(UwB97XD) =  -545.706546103     a.u. after    1 cycles

 The electronic state is 2-A.
 Alpha  occ. eigenvalues --  -24.97732 -24.97611 -19.54771 -19.45666 -10.60003
 Alpha  occ. eigenvalues --  -10.56292 -10.55869 -10.55569 -10.54459  -1.46497
 Alpha  occ. eigenvalues --   -1.46281  -1.41601  -1.32365  -1.12795  -1.01126
 Alpha  occ. eigenvalues --   -0.98109  -0.97113  -0.88419  -0.84718  -0.82338
 Alpha  occ. eigenvalues --   -0.81193  -0.79361  -0.78325  -0.76153  -0.75312
 Alpha  occ. eigenvalues --   -0.73995  -0.73456  -0.71869  -0.70807  -0.66934
 Alpha  occ. eigenvalues --   -0.65871  -0.62435  -0.61828  -0.60183  -0.59828
 Alpha  occ. eigenvalues --   -0.57645  -0.55064
 Alpha virt. eigenvalues --   -0.07298  -0.05835  -0.03418  -0.00952   0.00574
 Alpha virt. eigenvalues --    0.02357   0.03060   0.04010   0.04602   0.06367
 Alpha virt. eigenvalues --    0.07266   0.08160   0.08817   0.10413   0.11971

  Beta  occ. eigenvalues --  -24.97711 -24.97537 -19.54049 -19.45521 -10.59727
  Beta  occ. eigenvalues --  -10.55878 -10.55866 -10.55569 -10.54432  -1.46413
  Beta  occ. eigenvalues --   -1.46116  -1.39937  -1.32014  -1.11452  -0.99769
  Beta  occ. eigenvalues --   -0.97707  -0.96882  -0.87295  -0.83955  -0.81874
  Beta  occ. eigenvalues --   -0.80045  -0.78524  -0.77642  -0.75760  -0.74854
  Beta  occ. eigenvalues --   -0.73461  -0.72312  -0.70529  -0.69306  -0.65756
  Beta  occ. eigenvalues --   -0.64732  -0.61905  -0.60967  -0.59845  -0.59289
  Beta  occ. eigenvalues --   -0.54993
  Beta virt. eigenvalues --   -0.32999  -0.07020  -0.03687  -0.02538  -0.00642
  Beta virt. eigenvalues --    0.00832   0.02591   0.03297   0.04217   0.04910
  Beta virt. eigenvalues --    0.06735   0.07660   0.08394   0.09240   0.10770

 Mulliken charges and spin densities:
               1          2
     1  O   -0.448700   0.057003
     2  C    0.048526   0.008846
     3  C   -0.486628   0.297662
     4  C   -0.008460   0.193729
     5  O   -0.269375   0.278897
     6  C    0.145695  -0.001713
     7  F   -0.225119   0.020863
     8  C    0.161701  -0.003483
     9  F   -0.229610   0.006493
    10  H    0.375457  -0.001860
    11  H    0.182554   0.010716
    12  H    0.210738   0.072406
    13  H    0.230221   0.013929
    14  H    0.224062   0.011798
    15  H    0.398754  -0.009615
    16  H    0.163445   0.000455
    17  H    0.156798  -0.000708
    18  H    0.196755   0.036049
    19  H    0.173187   0.008533
 Sum of Mulliken charges =   1.00000   1.00000

 Dipole moment (field-independent basis, Debye):
    X=             -0.3052    Y=             -3.4117    Z=             -1.5403  Tot=              3.7557
  Exact polarizability:  74.840  12.848  73.390 -15.564  -6.496  69.322
 Approx polarizability:  73.865  10.473  75.179  -9.287  -4.649  67.847
                          Isotropic Fermi Contact Couplings
        Atom                 a.u.       MegaHertz       Gauss      10(-4) cm-1
     1  O(17)              0.02328     -14.11024      -5.03488      -4.70667
     2  C(13)             -0.01147     -12.89605      -4.60163      -4.30166
     3  C(13)              0.02970      33.39008      11.91441      11.13773
     4  C(13)              0.00461       5.17716       1.84734       1.72692
     5  O(17)              0.11566     -70.11359     -25.01827     -23.38738
     6  C(13)             -0.00364      -4.09300      -1.46048      -1.36528

                      1                      2                      3
                      A                      A                      A
 Frequencies --     89.2087                91.7557               125.7218
 Red. masses --      5.4270                 6.8732                 3.4705
 Frc consts  --      0.0254                 0.0341                 0.0323
 IR Inten    --      6.3773                 2.4693                 7.7901

                      4                      5                      6
                      A                      A                      A
 Frequencies --    154.9902               166.8318               226.9876
 Red. masses --      5.5317                 3.2862                 3.8306
 Frc consts  --      0.0783                 0.0539                 0.1163
 IR Inten    --      1.6325                 7.3207                 9.9104

                      7                      8                      9
                      A                      A                      A
 Frequencies --    249.4009               262.6702               290.5471
 Red. masses --      4.0461                 1.8296                 2.7055
 Frc consts  --      0.1483                 0.0744                 0.1346
 IR Inten    --      7.8844                28.7903                14.2548

                     10                     11                     12
                      A                      A                      A
 Frequencies --    321.4734               358.1425               447.2447
 Red. masses --      2.5836                 2.0820                 3.2330
 Frc consts  --      0.1573                 0.1573                 0.3810
 IR Inten    --     21.9502                26.9089                17.4666

                     13                     14                     15
                      A                      A                      A
 Frequencies --    462.7101               494.2823               558.0812
 Red. masses --      2.9161                 1.4781                 2.7568
 Frc consts  --      0.3678                 0.2128                 0.5059
 IR Inten    --      5.8793               165.4176                59.0312

                     16                     17                     18
                      A                      A                      A
 Frequencies --    625.1120               792.4560               842.8332
 Red. masses --      3.5169                 2.9709                 1.5613
 Frc consts  --      0.8097                 1.0992                 0.6535
 IR Inten    --     22.3731                12.5379               104.0152

                     19                     20                     21
                      A                      A                      A
 Frequencies --    933.0758               961.9878              1044.0608
 Red. masses --      1.1928                 1.7434                 1.9339
 Frc consts  --      0.6119                 0.9506                 1.2420
 IR Inten    --     37.7740                 8.7844                26.1659

                     22                     23                     24
                      A                      A                      A
 Frequencies --   1130.6973              1141.9091              1152.4006
 Red. masses --      2.5426                 1.7005                 5.9688
 Frc consts  --      1.9152                 1.3064                 4.6703
 IR Inten    --     76.1477               147.4800                55.8821

                     25                     26                     27
                      A                      A                      A
 Frequencies --   1169.8316              1179.4976              1217.6163
 Red. masses --      1.8626                 1.9971                 1.4821
 Frc consts  --      1.5018                 1.6370                 1.2946
 IR Inten    --     33.9057                61.3213                12.0574

                     28                     29                     30
                      A                      A                      A
 Frequencies --   1234.1193              1242.9396              1279.1659
 Red. masses --      1.4913                 1.5181                 1.1658
 Frc consts  --      1.3382                 1.3819                 1.1239
 IR Inten    --      4.1399                 7.9192                22.1749

                     31                     32                     33
                      A                      A                      A
 Frequencies --   1286.2352              1319.5287              1334.4728
 Red. masses --      1.4083                 1.7164                 1.8482
 Frc consts  --      1.3727                 1.7608                 1.9392
 IR Inten    --     28.6971               134.4469                90.2534

                     34                     35                     36
                      A                      A                      A
 Frequencies --   1387.4325              1402.0656              1417.3908
 Red. masses --      1.2831                 1.3090                 1.3930
 Frc consts  --      1.4552                 1.5162                 1.6488
 IR Inten    --      6.8184                77.9190                16.0575

                     37                     38                     39
                      A                      A                      A
 Frequencies --   1441.2418              1482.8070              1485.7985
 Red. masses --      1.2611                 1.1796                 1.2378
 Frc consts  --      1.5434                 1.5282                 1.6100
 IR Inten    --     10.8146                26.6205                11.5105

                     40                     41                     42
                      A                      A                      A
 Frequencies --   1522.8877              1536.6368              2925.8823
 Red. masses --      1.0910                 1.2686                 1.0670
 Frc consts  --      1.4908                 1.7649                 5.3816
 IR Inten    --      3.5627                 2.6321               156.6791

                     43                     44                     45
                      A                      A                      A
 Frequencies --   3025.0861              3029.3537              3067.0571
 Red. masses --      1.0594                 1.0624                 1.0579
 Frc consts  --      5.7119                 5.7444                 5.8630
 IR Inten    --     42.1997                17.1990                 3.2442

                     46                     47                     48
                      A                      A                      A
 Frequencies --   3076.4489              3115.3035              3140.5468
 Red. masses --      1.0914                 1.1024                 1.1137
 Frc consts  --      6.0859                 6.3036                 6.4720
 IR Inten    --      2.2130                 4.0893                 1.6716

                     49                     50                     51
                      A                      A                      A
 Frequencies --   3178.5274              3644.8322              3749.9487
 Red. masses --      1.1144                 1.0676                 1.0676
 Frc consts  --      6.6337                 8.3561                 8.8455
 IR Inten    --     31.2687               346.3570               311.8590

 Optimization completed.
    -- Stationary point found.
 Normal termination of Gaussian 16 at Mon Jul 10 19:43:50 2023.
