 Gaussian 16, Revision B.01,
 Gaussian 16:  ES64L-G16RevB.01 20-Dec-2017

 ----------------------------------------------------------------------
 #T wB97XD/def2svpp opt=(tight,calcfc) int(grid=ultrafine) scf=(verytig
 ht,qc) Volume=tight
 ----------------------------------------------------------------------
 -----
 Dimer
 -----
 Symbolic Z-matrix:
 Charge =  0 Multiplicity = 1

 SCF Done:  E(RwB97XD) =  -159.464312596     a.u. after    6 cycles

  Exact polarizability:   0.000   0.000   0.000   0.000   0.000   0.000
 Approx polarizability:  43.767   0.000  42.750  -0.002   0.004  42.758

 SCF Done:  E(RwB97XD) =  -159.466039547     a.u. after    7 cycles
 SCF Done:  E(RwB97XD) =  -159.466665044     a.u. after    5 cycles
 SCF Done:  E(RwB97XD) =  -159.466638341     a.u. after    7 cycles
 SCF Done:  E(RwB97XD) =  -159.466635476     a.u. after    7 cycles
 SCF Done:  E(RwB97XD) =  -159.466658034     a.u. after    7 cycles
 SCF Done:  E(RwB97XD) =  -159.466930377     a.u. after    5 cycles
 SCF Done:  E(RwB97XD) =  -159.466989149     a.u. after    7 cycles
 SCF Done:  E(RwB97XD) =  -159.467023178     a.u. after    5 cycles
 SCF Done:  E(RwB97XD) =  -159.467035921     a.u. after    4 cycles
 SCF Done:  E(RwB97XD) =  -159.467039440     a.u. after    4 cycles
 SCF Done:  E(RwB97XD) =  -159.467039430     a.u. after    2 cycles
 SCF Done:  E(RwB97XD) =  -159.467039426     a.u. after    2 cycles
 SCF Done:  E(RwB97XD) =  -159.467038645     a.u. after    2 cycles
 SCF Done:  E(RwB97XD) =  -159.467040019     a.u. after    2 cycles
 SCF Done:  E(RwB97XD) =  -159.467039506     a.u. after    2 cycles
 SCF Done:  E(RwB97XD) =  -159.467038970     a.u. after    2 cycles
 SCF Done:  E(RwB97XD) =  -159.467039394     a.u. after    2 cycles
 SCF Done:  E(RwB97XD) =  -159.467039434     a.u. after    2 cycles
 SCF Done:  E(RwB97XD) =  -159.467039434     a.u. after    2 cycles
 Optimization completed.
    -- Stationary point found.

                         Standard orientation:
 ---------------------------------------------------------------------
 Center     Atomic      Atomic             Coordinates (Angstroms)
 Number     Number       Type             X           Y           Z
 ---------------------------------------------------------------------
      1          6           0       -1.813675    0.535129    0.543188
      2          6           0       -1.813413   -0.535258   -0.543153
      3          1           0       -1.806188    0.084626    1.550948
      4          1           0       -2.707410    1.179254    0.473359
      5          1           0       -0.926930    1.187552    0.463502
      6          1           0       -2.707544   -1.178926   -0.474188
      7          1           0       -0.927082   -1.188133   -0.462592
      8          1           0       -1.804686   -0.084757   -1.550902
      9          6           0        1.813295    0.543524   -0.534922
     10          6           0        1.813787   -0.543398    0.534883
     11          1           0        0.927207    0.462923   -1.188144
     12          1           0        2.707660    0.475364   -1.178350
     13          1           0        1.803942    1.551016   -0.083856
     14          1           0        1.807048   -1.550916    0.083828
     15          1           0        0.926776   -0.464597    1.187054
     16          1           0        2.707249   -0.473386    1.179367
 ---------------------------------------------------------------------

 The electronic state is 1-A.
 Alpha  occ. eigenvalues --  -10.28054 -10.28052 -10.28048 -10.28047  -0.84561
 Alpha  occ. eigenvalues --   -0.83909  -0.70002  -0.70001  -0.53366  -0.52028
 Alpha  occ. eigenvalues --   -0.52028  -0.50599  -0.45271  -0.45093  -0.42500
 Alpha  occ. eigenvalues --   -0.42255  -0.42253  -0.42090
 Alpha virt. eigenvalues --    0.12930   0.17031   0.17726   0.17727   0.20804
 Alpha virt. eigenvalues --    0.21602   0.21602   0.23600   0.24760   0.25506
 Alpha virt. eigenvalues --    0.25509   0.25848   0.31674   0.31675   0.48329

 Mulliken charges:
               1
     1  C   -0.368837
     2  C   -0.368842
     3  H    0.121305
     4  H    0.120827
     5  H    0.126695
     6  H    0.120827
     7  H    0.126690
     8  H    0.121326
     9  C   -0.368852
    10  C   -0.368835
    11  H    0.126691
    12  H    0.120831
    13  H    0.121336
    14  H    0.121303
    15  H    0.126709
    16  H    0.120826
 Sum of Mulliken charges =  -0.00000

 Dipole moment (field-independent basis, Debye):
    X=              0.0001    Y=              0.0000    Z=             -0.0000  Tot=              0.0001
 Evaluate density.
 Using the total density.
 Monte-Carlo method of calculating molar volume:
 based on  0.001 e/bohr**3 density envelope.
 Number of points per bohr**3 =  100 CutOff= 1.00D-04
 Using the SCF density.
 There are      1653 points.  Will hold      1653 in memory.
 LenV=  1048423726 MDV=  1048576000.
 Box volume = 4520.298 fraction occupied=0.192
 Integrated density= 3.1098916200274410D+01 error=-4.9010837997255905D+00

 Normal termination of Gaussian 16 at Fri Feb  3 12:59:30 2023.
