 Gaussian 16, Revision B.01,
 Gaussian 16:  ES64L-G16RevB.01 20-Dec-2017

 ----------------------------------------------------------------------
 #T wB97XD/def2svpp opt=tight freq int(grid=ultrafine) scf=(verytight,q
 c)
 ----------------------------------------------------------------------
 -------
 comment
 -------
 Symbolic Z-matrix:
 Charge =  1 Multiplicity = 2

 SCF Done:  E(UwB97XD) =  -496.546008547     a.u. after   21 cycles
 SCF Done:  E(UwB97XD) =  -496.558243354     a.u. after   22 cycles
 SCF Done:  E(UwB97XD) =  -496.561938197     a.u. after   14 cycles
 SCF Done:  E(UwB97XD) =  -496.563378880     a.u. after   13 cycles
 SCF Done:  E(UwB97XD) =  -496.563898015     a.u. after   14 cycles
 SCF Done:  E(UwB97XD) =  -496.566628809     a.u. after   11 cycles
 SCF Done:  E(UwB97XD) =  -496.566483991     a.u. after   11 cycles
 SCF Done:  E(UwB97XD) =  -496.568681272     a.u. after   10 cycles
 SCF Done:  E(UwB97XD) =  -496.569953301     a.u. after   15 cycles
 SCF Done:  E(UwB97XD) =  -496.570588991     a.u. after   11 cycles
 SCF Done:  E(UwB97XD) =  -496.570903547     a.u. after    3 cycles
 SCF Done:  E(UwB97XD) =  -496.570907137     a.u. after    3 cycles
 SCF Done:  E(UwB97XD) =  -496.570907900     a.u. after    3 cycles
 SCF Done:  E(UwB97XD) =  -496.570908188     a.u. after    3 cycles
 SCF Done:  E(UwB97XD) =  -496.570908233     a.u. after    2 cycles
 SCF Done:  E(UwB97XD) =  -496.570908239     a.u. after    2 cycles
 SCF Done:  E(UwB97XD) =  -496.570908238     a.u. after    2 cycles
 SCF Done:  E(UwB97XD) =  -496.570908245     a.u. after    2 cycles
 SCF Done:  E(UwB97XD) =  -496.570908245     a.u. after    2 cycles
 Optimization completed.
    -- Stationary point found.
 Normal termination of Gaussian 16 at Mon Jul 10 19:52:05 2023.

 ---------------------------------------------------------------------
 #T Geom=AllCheck Guess=TCheck SCRF=Check GenChk UwB97XD/def2SVPP Freq
 ---------------------------------------------------------------------
 Structure from the checkpoint file:  "35.chk"
 -------
 comment
 -------
 Charge =  1 Multiplicity = 2

                         Standard orientation:
 ---------------------------------------------------------------------
 Center     Atomic      Atomic             Coordinates (Angstroms)
 Number     Number       Type             X           Y           Z
 ---------------------------------------------------------------------
      1          6           0       -1.064127    1.813568   -0.535813
      2          6           0       -0.185291    0.622166   -0.167084
      3          6           0        0.951456    0.396877   -1.200298
      4          8           0        1.771173   -0.650819   -0.798780
      5          6           0        0.567636    0.853823    1.171016
      6          8           0        1.413152   -0.241050    1.384518
      7          6           0       -0.969346   -0.691168   -0.046685
      8          8           0       -2.158943   -0.547895    0.484335
      9          8           0       -0.500265   -1.756403   -0.389471
     10          1           0       -1.603458    1.627844   -1.478625
     11          1           0       -0.453002    2.723234   -0.656962
     12          1           0       -1.817242    1.996057    0.246268
     13          1           0        1.570792    1.294000   -1.343923
     14          1           0        0.483690    0.113450   -2.169272
     15          1           0        1.151497   -1.438986   -0.655108
     16          1           0       -0.178579    0.876428    1.988867
     17          1           0        1.113789    1.810998    1.142040
     18          1           0        2.331827    0.011164    1.589541
     19          1           0       -2.602228   -1.416452    0.565543
 ---------------------------------------------------------------------

 SCF Done:  E(UwB97XD) =  -496.570908245     a.u. after    1 cycles

 The electronic state is 2-A.
 Alpha  occ. eigenvalues --  -19.53969 -19.52149 -19.48717 -19.44164 -10.62424
 Alpha  occ. eigenvalues --  -10.55718 -10.55587 -10.53574 -10.46296  -1.40447
 Alpha  occ. eigenvalues --   -1.38749  -1.36114  -1.30033  -1.11984  -0.98810
 Alpha  occ. eigenvalues --   -0.97537  -0.94157  -0.88647  -0.84545  -0.83369
 Alpha  occ. eigenvalues --   -0.80247  -0.77143  -0.76356  -0.74746  -0.72517
 Alpha  occ. eigenvalues --   -0.71719  -0.69984  -0.67594  -0.66232  -0.64984
 Alpha  occ. eigenvalues --   -0.64530  -0.63375  -0.62255  -0.59360  -0.56999
 Alpha  occ. eigenvalues --   -0.55326
 Alpha virt. eigenvalues --   -0.10666  -0.05316  -0.02654  -0.01014   0.00255
 Alpha virt. eigenvalues --    0.02398   0.03280   0.04575   0.05712   0.06354
 Alpha virt. eigenvalues --    0.07589   0.08649   0.10095   0.11178   0.12591

  Beta  occ. eigenvalues --  -19.52623 -19.51263 -19.48718 -19.44161 -10.62434
  Beta  occ. eigenvalues --  -10.55714 -10.55587 -10.53428 -10.46307  -1.39867
  Beta  occ. eigenvalues --   -1.36766  -1.33690  -1.29888  -1.11394  -0.97992
  Beta  occ. eigenvalues --   -0.97038  -0.94090  -0.88082  -0.83826  -0.81619
  Beta  occ. eigenvalues --   -0.79208  -0.76885  -0.75729  -0.74006  -0.72215
  Beta  occ. eigenvalues --   -0.69228  -0.68001  -0.65943  -0.65068  -0.64578
  Beta  occ. eigenvalues --   -0.63572  -0.61696  -0.59280  -0.58321  -0.55174
  Beta virt. eigenvalues --   -0.31191  -0.10593  -0.05046  -0.02535  -0.00903
  Beta virt. eigenvalues --    0.00505   0.02622   0.03562   0.04836   0.06140
  Beta virt. eigenvalues --    0.06515   0.07719   0.08788   0.10362   0.11515

 Mulliken charges and spin densities:
               1          2
     1  C   -0.258392  -0.005656
     2  C   -0.457079   0.086001
     3  C    0.004396  -0.011688
     4  O   -0.251339   0.516441
     5  C    0.032359  -0.006290
     6  O   -0.348167   0.318351
     7  C    0.334460  -0.003845
     8  O   -0.312855  -0.000243
     9  O   -0.264908   0.003470
    10  H    0.176592   0.003543
    11  H    0.165867   0.000027
    12  H    0.189908   0.004827
    13  H    0.186695   0.000174
    14  H    0.223834   0.073445
    15  H    0.406410  -0.013195
    16  H    0.208969   0.045957
    17  H    0.181384  -0.000627
    18  H    0.394223  -0.010504
    19  H    0.387645  -0.000186
 Sum of Mulliken charges =   1.00000   1.00000

 Dipole moment (field-independent basis, Debye):
    X=              1.3234    Y=              2.4759    Z=              0.7299  Tot=              2.9007
  Exact polarizability:  67.825  -4.484  64.024  -3.329   5.738  81.769
 Approx polarizability:  74.573  -8.177  72.833  -6.460   6.290  83.845
                          Isotropic Fermi Contact Couplings
        Atom                 a.u.       MegaHertz       Gauss      10(-4) cm-1
     1  C(13)             -0.00518      -5.82872      -2.07983      -1.94425
     2  C(13)              0.00563       6.32632       2.25739       2.11023
     3  C(13)             -0.02515     -28.27685     -10.08988      -9.43214
     4  O(17)              0.23772    -144.10363     -51.41976     -48.06780
     5  C(13)             -0.01620     -18.21249      -6.49867      -6.07503
     6  O(17)              0.18891    -114.51831     -40.86298     -38.19920

                      1                      2                      3
                      A                      A                      A
 Frequencies --     71.0553               154.5725               219.1531
 Red. masses --      8.0860                 4.4783                 2.7554
 Frc consts  --      0.0241                 0.0630                 0.0780
 IR Inten    --      2.5821                 1.5337                21.6501

                      4                      5                      6
                      A                      A                      A
 Frequencies --    230.0487               235.7552               279.9580
 Red. masses --      1.3104                 2.1173                 2.7475
 Frc consts  --      0.0409                 0.0693                 0.1269
 IR Inten    --      1.0403                 2.3597                 0.5602

                      7                      8                      9
                      A                      A                      A
 Frequencies --    295.1269               320.5997               375.8493
 Red. masses --      5.3430                 2.9434                 2.6510
 Frc consts  --      0.2742                 0.1782                 0.2206
 IR Inten    --      5.2154                 1.0065                11.6505

                     10                     11                     12
                      A                      A                      A
 Frequencies --    406.9705               437.6286               494.1431
 Red. masses --      1.5945                 4.0499                 2.9185
 Frc consts  --      0.1556                 0.4570                 0.4199
 IR Inten    --     58.1503                13.3524                 2.0226

                     13                     14                     15
                      A                      A                      A
 Frequencies --    581.9998               609.1569               679.2880
 Red. masses --      3.6451                 3.9582                 1.2807
 Frc consts  --      0.7274                 0.8654                 0.3482
 IR Inten    --     30.5039                 9.7349               121.0604

                     16                     17                     18
                      A                      A                      A
 Frequencies --    759.3588               809.7547               876.8288
 Red. masses --      3.2786                 3.8252                 1.8502
 Frc consts  --      1.1138                 1.4778                 0.8381
 IR Inten    --     52.5403                27.0184                51.9453

                     19                     20                     21
                      A                      A                      A
 Frequencies --    888.7436               892.4831               964.6388
 Red. masses --      1.7498                 1.4025                 1.8602
 Frc consts  --      0.8143                 0.6582                 1.0198
 IR Inten    --     13.3366                38.7564                 3.3854

                     22                     23                     24
                      A                      A                      A
 Frequencies --    983.2846              1062.6444              1112.8771
 Red. masses --      1.3911                 2.7325                 2.9027
 Frc consts  --      0.7925                 1.8180                 2.1181
 IR Inten    --     15.9576                10.5054                 2.4994

                     25                     26                     27
                      A                      A                      A
 Frequencies --   1132.4152              1147.4358              1183.5668
 Red. masses --      1.5702                 1.4550                 2.9370
 Frc consts  --      1.1863                 1.1287                 2.4241
 IR Inten    --     11.5939                23.2775                71.4169

                     28                     29                     30
                      A                      A                      A
 Frequencies --   1193.1735              1236.9413              1260.4584
 Red. masses --      1.6269                 1.6741                 1.5954
 Frc consts  --      1.3647                 1.5092                 1.4934
 IR Inten    --     76.5242               187.3505                43.6609

                     31                     32                     33
                      A                      A                      A
 Frequencies --   1289.2133              1309.7818              1380.8437
 Red. masses --      1.2423                 1.6777                 1.3155
 Frc consts  --      1.2165                 1.6958                 1.4778
 IR Inten    --     45.7706                39.6250                40.1139

                     34                     35                     36
                      A                      A                      A
 Frequencies --   1416.4180              1426.0889              1456.2231
 Red. masses --      1.2515                 1.3364                 1.2413
 Frc consts  --      1.4794                 1.6014                 1.5509
 IR Inten    --     70.9319                25.8227                33.2701

                     37                     38                     39
                      A                      A                      A
 Frequencies --   1471.0617              1483.3169              1489.7603
 Red. masses --      1.3171                 1.0916                 1.0641
 Frc consts  --      1.6793                 1.4151                 1.3914
 IR Inten    --     12.7852                15.0355                14.7350

                     40                     41                     42
                      A                      A                      A
 Frequencies --   1510.1716              1846.7726              2985.0302
 Red. masses --      1.5976                 9.1772                 1.0668
 Frc consts  --      2.1467                18.4411                 5.6008
 IR Inten    --     83.3790               191.4163                66.9344

                     43                     44                     45
                      A                      A                      A
 Frequencies --   3019.0097              3039.3803              3057.6595
 Red. masses --      1.0710                 1.0627                 1.0381
 Frc consts  --      5.7512                 5.7838                 5.7183
 IR Inten    --    561.5479               105.2752                 3.5326

                     46                     47                     48
                      A                      A                      A
 Frequencies --   3133.2283              3156.5757              3163.1583
 Red. masses --      1.1087                 1.1066                 1.0998
 Frc consts  --      6.4126                 6.4967                 6.4832
 IR Inten    --     11.8571                 2.1703                14.2862

                     49                     50                     51
                      A                      A                      A
 Frequencies --   3169.9290              3639.0567              3688.5170
 Red. masses --      1.1055                 1.0646                 1.0684
 Frc consts  --      6.5449                 8.3064                 8.5639
 IR Inten    --      0.8469               209.3958               331.7508

 Optimization completed.
    -- Stationary point found.
 Normal termination of Gaussian 16 at Mon Jul 10 19:55:18 2023.
