 Gaussian 16, Revision B.01,
 Gaussian 16:  ES64L-G16RevB.01 20-Dec-2017

 --------------------------------------------------------------
 #T wB97XD//def2svpp Volume=tight Geom=AllCheckpoint Guess=Read
 --------------------------------------------------------------
 Structure from the checkpoint file:  "28.chk"
 -------
 Monomer
 -------
 Charge =  0 Multiplicity = 1

                         Standard orientation:
 ---------------------------------------------------------------------
 Center     Atomic      Atomic             Coordinates (Angstroms)
 Number     Number       Type             X           Y           Z
 ---------------------------------------------------------------------
      1          6           0       -0.838486   -0.724485    1.259223
      2          6           0       -0.347443   -0.005656   -0.000000
      3          6           0       -0.838486   -0.724486   -1.259222
      4          6           0       -0.821467    1.451921   -0.000001
      5         16           0        1.501673    0.079443   -0.000000
      6          1           0       -1.944237   -0.742506    1.281209
      7          1           0       -0.479836   -0.217944    2.170669
      8          1           0       -0.483980   -1.769927    1.286364
      9          1           0       -1.944237   -0.742508   -1.281208
     10          1           0       -0.483980   -1.769928   -1.286362
     11          1           0       -0.479836   -0.217945   -2.170669
     12          1           0       -1.925747    1.483642   -0.000001
     13          1           0       -0.463812    1.989925   -0.894968
     14          1           0       -0.463813    1.989926    0.894967
     15          1           0        1.718003   -1.257586    0.000001
 ---------------------------------------------------------------------

 SCF Done:  E(RwB97XD) =  -556.335949556     A.U. after    1 cycles

 The electronic state is 1-A.
 Alpha  occ. eigenvalues --  -88.99057 -10.34145 -10.29121 -10.28952 -10.28951
 Alpha  occ. eigenvalues --   -8.04380  -5.99847  -5.99467  -5.98760  -0.92980
 Alpha  occ. eigenvalues --   -0.79746  -0.78378  -0.78209  -0.63058  -0.55344
 Alpha  occ. eigenvalues --   -0.53479  -0.53438  -0.48823  -0.48079  -0.45393
 Alpha  occ. eigenvalues --   -0.44728  -0.42573  -0.42174  -0.38650  -0.30957
 Alpha virt. eigenvalues --    0.09860   0.13667   0.15321   0.18954   0.19554
 Alpha virt. eigenvalues --    0.19896   0.20180   0.20888   0.24067   0.24385
 Alpha virt. eigenvalues --    0.26801   0.27412   0.29048   0.29514   0.41433

 Mulliken charges:
               1
     1  C   -0.232693
     2  C   -0.366244
     3  C   -0.232693
     4  C   -0.260767
     5  S   -0.154301
     6  H    0.114531
     7  H    0.128976
     8  H    0.114298
     9  H    0.114531
    10  H    0.114298
    11  H    0.128976
    12  H    0.122500
    13  H    0.132552
    14  H    0.132552
    15  H    0.143483
 Sum of Mulliken charges =   0.00000

 Dipole moment (field-independent basis, Debye):
    X=             -1.4395    Y=             -0.8163    Z=              0.0000  Tot=              1.6549
 Evaluate density.
 Using the total density.
 Monte-Carlo method of calculating molar volume:
 based on  0.001 e/bohr**3 density envelope.
 Number of points per bohr**3 =  100 CutOff= 1.00D-04
 Using the SCF density.
 There are      1830 points.  Will hold      1830 in memory.
 LenV=  1048378095 MDV=  1048576000.
 Box volume = 6132.947 fraction occupied=0.146
 Integrated density= 9.5542979975712370D+01 error= 4.5542979975712370D+01

 Normal termination of Gaussian 16 at Fri Sep 23 14:18:07 2022.
