 Gaussian 16, Revision B.01,
 Gaussian 16:  ES64L-G16RevB.01 20-Dec-2017

 ----------------------------------------------------------------------
 #T wB97XD/def2svpp opt=tight freq int(grid=ultrafine) scf=(verytight,q
 c)
 ----------------------------------------------------------------------
 --------------
 Comment gs min
 --------------
 Symbolic Z-matrix:
 Charge =  0 Multiplicity = 1

 SCF Done:  E(RwB97XD) =  -556.334762056     a.u. after    7 cycles
 SCF Done:  E(RwB97XD) =  -556.335891389     a.u. after    5 cycles
 SCF Done:  E(RwB97XD) =  -556.335946092     a.u. after    3 cycles
 SCF Done:  E(RwB97XD) =  -556.335949436     a.u. after    2 cycles
 SCF Done:  E(RwB97XD) =  -556.335949542     a.u. after    2 cycles
 SCF Done:  E(RwB97XD) =  -556.335949556     a.u. after    2 cycles
 SCF Done:  E(RwB97XD) =  -556.335949556     a.u. after    2 cycles
 SCF Done:  E(RwB97XD) =  -556.335949556     a.u. after    2 cycles
 SCF Done:  E(RwB97XD) =  -556.335949556     a.u. after    2 cycles
 SCF Done:  E(RwB97XD) =  -556.335949556     a.u. after    2 cycles
 Optimization completed.
    -- Stationary point found.

 1\1\GINC-C624\FOpt\RwB97XD\def2SVPP\C4H10S1\PETERCHAO1\04-Aug-2022\0\\
 #T wB97XD/def2svpp opt=tight freq int(grid=ultrafine) scf=(verytight,q
 c)\\Comment gs min\\0,1\C,0.8975951908,0.0218139241,0.0476957505\C,2.4
 282388905,0.0310895742,0.0247884859\C,2.9536810154,-0.609910472,-1.262
 2664946\C,2.9540007396,1.4645700327,0.1587214007\S,3.0889506812,-0.873
 8458043,1.4982277069\H,0.4999908407,0.5951634912,-0.8106018003\H,0.511
 8882138,0.4729067183,0.9770475333\H,0.5032085935,-1.0071824331,-0.0229
 163772\H,2.5919752995,-0.0475910151,-2.143435849\H,2.603610191,-1.6525

 Normal termination of Gaussian 16 at Thu Aug  4 16:15:13 2022.

 ---------------------------------------------------------------------
 #T Geom=AllCheck Guess=TCheck SCRF=Check GenChk RwB97XD/def2SVPP Freq
 ---------------------------------------------------------------------
 Structure from the checkpoint file:  "/scratch/user/peterchao1/peterchao1/6097808_1659647584000000839197405/Gau-85701.chk"
 --------------
 Comment gs min
 --------------
 Charge =  0 Multiplicity = 1

                         Standard orientation:
 ---------------------------------------------------------------------
 Center     Atomic      Atomic             Coordinates (Angstroms)
 Number     Number       Type             X           Y           Z
 ---------------------------------------------------------------------
      1          6           0        0.838486   -0.724485   -1.259223
      2          6           0        0.347443   -0.005656    0.000000
      3          6           0        0.838486   -0.724486    1.259222
      4          6           0        0.821467    1.451921    0.000001
      5         16           0       -1.501673    0.079443    0.000000
      6          1           0        1.944237   -0.742506   -1.281209
      7          1           0        0.479836   -0.217944   -2.170669
      8          1           0        0.483980   -1.769927   -1.286364
      9          1           0        1.944237   -0.742508    1.281208
     10          1           0        0.483980   -1.769928    1.286362
     11          1           0        0.479836   -0.217945    2.170669
     12          1           0        1.925747    1.483642    0.000001
     13          1           0        0.463812    1.989925    0.894968
     14          1           0        0.463813    1.989926   -0.894967
     15          1           0       -1.718003   -1.257586   -0.000001
 ---------------------------------------------------------------------

 SCF Done:  E(RwB97XD) =  -556.335949556     a.u. after    1 cycles

 The electronic state is 1-A.
 Alpha  occ. eigenvalues --  -88.99057 -10.34145 -10.29121 -10.28952 -10.28951
 Alpha  occ. eigenvalues --   -8.04380  -5.99847  -5.99467  -5.98760  -0.92980
 Alpha  occ. eigenvalues --   -0.79746  -0.78378  -0.78209  -0.63058  -0.55344
 Alpha  occ. eigenvalues --   -0.53479  -0.53438  -0.48823  -0.48079  -0.45393
 Alpha  occ. eigenvalues --   -0.44728  -0.42573  -0.42174  -0.38650  -0.30957
 Alpha virt. eigenvalues --    0.09860   0.13667   0.15321   0.18954   0.19554
 Alpha virt. eigenvalues --    0.19896   0.20180   0.20888   0.24067   0.24385
 Alpha virt. eigenvalues --    0.26801   0.27412   0.29048   0.29514   0.41433

 Mulliken charges:
               1
     1  C   -0.232693
     2  C   -0.366244
     3  C   -0.232693
     4  C   -0.260767
     5  S   -0.154300
     6  H    0.114531
     7  H    0.128976
     8  H    0.114298
     9  H    0.114531
    10  H    0.114298
    11  H    0.128976
    12  H    0.122500
    13  H    0.132552
    14  H    0.132552
    15  H    0.143483
 Sum of Mulliken charges =  -0.00000

 Dipole moment (field-independent basis, Debye):
    X=              1.4395    Y=             -0.8163    Z=             -0.0000  Tot=              1.6549
  Exact polarizability:  64.756   1.694  57.610   0.000   0.000  52.939
 Approx polarizability:  70.075   1.503  62.752   0.000   0.000  55.696
   1 Symmetry operations used in ECPInt.
 ECPInt:  NShTT=    1378 NPrTT=    5776 LenC2=    1376 LenP2D=    4777.
 LDataN:  DoStor=T MaxTD1= 6 Len=  172
 Calling FoFJK, ICntrl=    100127 FMM=F ISym2X=0 I1Cent= 0 IOpClX= 0 NMat=1 NMatS=1 NMatT=0.
 Full mass-weighted force constant matrix:
 Low frequencies ---   -5.4890   -0.0019   -0.0018   -0.0009    6.2146   11.9333
 Low frequencies ---  213.6993  265.4370  293.5205
 Diagonal vibrational polarizability:

                      1                      2                      3
                      A                      A                      A
 Frequencies --    213.6981               265.4369               293.5204
 Red. masses --      1.0245                 1.0425                 1.9765
 Frc consts  --      0.0276                 0.0433                 0.1003
 IR Inten    --     10.4833                 9.9587                 0.8113

                      4                      5                      6
                      A                      A                      A
 Frequencies --    293.5447               309.0696               310.9435
 Red. masses --      1.1081                 1.2158                 2.3687
 Frc consts  --      0.0563                 0.0684                 0.1349
 IR Inten    --      0.1941                 0.1575                 1.4421

                      7                      8                      9
                      A                      A                      A
 Frequencies --    378.4388               409.5517               414.2146
 Red. masses --      3.1041                 2.2766                 2.4529
 Frc consts  --      0.2619                 0.2250                 0.2480
 IR Inten    --      0.4367                 0.8842                 0.5680

                     10                     11                     12
                      A                      A                      A
 Frequencies --    608.2849               848.8203               902.3704
 Red. masses --      3.4769                 2.5755                 1.1585
 Frc consts  --      0.7580                 1.0933                 0.5558
 IR Inten    --      3.6887                 0.9364                 3.4396

                     13                     14                     15
                      A                      A                      A
 Frequencies --    953.5978               961.9676               978.2029
 Red. masses --      1.5754                 1.5443                 1.2027
 Frc consts  --      0.8440                 0.8420                 0.6780
 IR Inten    --      0.4518                 1.0333                 0.0161

                     16                     17                     18
                      A                      A                      A
 Frequencies --   1057.9759              1069.4146              1215.7594
 Red. masses --      1.3985                 1.3427                 2.0760
 Frc consts  --      0.9223                 0.9047                 1.8079
 IR Inten    --      0.1239                 1.9988                40.7002

                     19                     20                     21
                      A                      A                      A
 Frequencies --   1264.4482              1279.1041              1409.5907
 Red. masses --      2.6257                 2.5769                 1.3024
 Frc consts  --      2.4734                 2.4840                 1.5247
 IR Inten    --      4.4888                 0.5698                12.7549

                     22                     23                     24
                      A                      A                      A
 Frequencies --   1410.2247              1434.9958              1469.8404
 Red. masses --      1.2906                 1.2321                 1.0454
 Frc consts  --      1.5122                 1.4949                 1.3306
 IR Inten    --     13.1696                 2.2189                 0.0428

                     25                     26                     27
                      A                      A                      A
 Frequencies --   1476.0934              1480.4869              1495.0852
 Red. masses --      1.0420                 1.0418                 1.0594
 Frc consts  --      1.3377                 1.3454                 1.3953
 IR Inten    --      0.2115                 0.1993                12.4438

                     28                     29                     30
                      A                      A                      A
 Frequencies --   1495.9482              1509.7031              2688.0027
 Red. masses --      1.0604                 1.0512                 1.0383
 Frc consts  --      1.3981                 1.4116                 4.4202
 IR Inten    --     10.3616                11.6014                11.0375

                     31                     32                     33
                      A                      A                      A
 Frequencies --   3022.9100              3025.9998              3032.2497
 Red. masses --      1.0383                 1.0381                 1.0377
 Frc consts  --      5.5902                 5.6004                 5.6216
 IR Inten    --     18.0294                29.1525                18.4389

                     34                     35                     36
                      A                      A                      A
 Frequencies --   3111.1651              3115.0666              3124.7981
 Red. masses --      1.1037                 1.1032                 1.1043
 Frc consts  --      6.2945                 6.3071                 6.3529
 IR Inten    --      0.4734                33.6943                18.7237

                     37                     38                     39
                      A                      A                      A
 Frequencies --   3132.5743              3137.4423              3138.7774
 Red. masses --      1.1060                 1.1050                 1.1048
 Frc consts  --      6.3945                 6.4087                 6.4128
 IR Inten    --      6.3830                14.1984                18.2023

 Optimization completed.
    -- Stationary point found.

 1\1\GINC-C624\Freq\RwB97XD\def2SVPP\C4H10S1\PETERCHAO1\04-Aug-2022\0\\
 #T Geom=AllCheck Guess=TCheck SCRF=Check GenChk RwB97XD/def2SVPP Freq\
 \Comment gs min\\0,1\C,0.8975951908,0.0218139241,0.0476957505\C,2.4282
 388906,0.0310895742,0.0247884858\C,2.9536810154,-0.609910472,-1.262266
 4946\C,2.9540007396,1.4645700327,0.1587214007\S,3.0889506812,-0.873845
 8043,1.4982277069\H,0.4999908407,0.5951634912,-0.8106018003\H,0.511888
 2138,0.4729067183,0.9770475333\H,0.5032085935,-1.0071824331,-0.0229163
 772\H,2.5919752995,-0.0475910151,-2.143435849\H,2.603610191,-1.6525227

 Normal termination of Gaussian 16 at Thu Aug  4 16:15:57 2022.
