 Gaussian 16, Revision B.01,
 Gaussian 16:  ES64L-G16RevB.01 20-Dec-2017

 ----------------------------------------------------------------------
 #T wB97XD/def2svpp opt=tight freq int(grid=ultrafine) scf=(verytight,q
 c) Volume=tight
 ----------------------------------------------------------------------
 -------
 Monomer
 -------
 Symbolic Z-matrix:
 Charge =  0 Multiplicity = 1

 SCF Done:  E(RwB97XD) =  -269.258243369     a.u. after    7 cycles
 Optimization completed.
    -- Stationary point found.
 Normal termination of Gaussian 16 at Mon Feb  6 10:22:32 2023.

 ---------------------------------------------------------------------
 #T Geom=AllCheck Guess=TCheck SCRF=Check GenChk RwB97XD/def2SVPP Freq
 ---------------------------------------------------------------------
 Structure from the checkpoint file:  "9.chk"
 -------
 Monomer
 -------
 Charge =  0 Multiplicity = 1

                         Standard orientation:
 ---------------------------------------------------------------------
 Center     Atomic      Atomic             Coordinates (Angstroms)
 Number     Number       Type             X           Y           Z
 ---------------------------------------------------------------------
      1          8           0        1.372147   -0.931639    0.023588
      2          6           0        1.254728    0.466484    0.231262
      3          6           0       -0.033377    1.047148   -0.345876
      4          6           0       -1.293501    0.399196    0.229710
      5          8           0       -1.408558   -0.957374   -0.101097
      6          1           0        1.460457   -1.096678   -0.925943
      7          1           0        2.137689    0.996314   -0.177123
      8          1           0        1.271502    0.600818    1.325786
      9          1           0       -0.036810    0.922108   -1.445897
     10          1           0       -0.049549    2.134688   -0.146995
     11          1           0       -2.188304    0.903618   -0.171710
     12          1           0       -1.304614    0.552342    1.332076
     13          1           0       -0.566180   -1.378075    0.139297
 ---------------------------------------------------------------------

 SCF Done:  E(RwB97XD) =  -269.258243369     a.u. after    1 cycles

 The electronic state is 1-A.
 Alpha  occ. eigenvalues --  -19.27078 -19.22838 -10.34975 -10.33153 -10.29603
 Alpha  occ. eigenvalues --   -1.13240  -1.09449  -0.86845  -0.76450  -0.69687
 Alpha  occ. eigenvalues --   -0.61537  -0.58781  -0.55426  -0.53141  -0.50431
 Alpha  occ. eigenvalues --   -0.48271  -0.46076  -0.42803  -0.40943  -0.36215
 Alpha  occ. eigenvalues --   -0.33962
 Alpha virt. eigenvalues --    0.12221   0.15386   0.17491   0.19121   0.20645
 Alpha virt. eigenvalues --    0.21210   0.22589   0.23469   0.27779   0.29173
 Alpha virt. eigenvalues --    0.32310   0.34394   0.50844   0.53666   0.55867

 Mulliken charges:
               1
     1  O   -0.501592
     2  C   -0.002708
     3  C   -0.293908
     4  C    0.035162
     5  O   -0.512769
     6  H    0.323971
     7  H    0.110404
     8  H    0.113387
     9  H    0.108329
    10  H    0.112795
    11  H    0.107311
    12  H    0.082310
    13  H    0.317309
 Sum of Mulliken charges =  -0.00000

 Dipole moment (field-independent basis, Debye):
    X=              1.8126    Y=              1.8295    Z=             -0.7198  Tot=              2.6740
  Exact polarizability:  40.737  -0.234  39.138  -0.545   1.110  37.052
 Approx polarizability:  38.706  -0.420  41.434   0.067   1.519  39.552
   1 Symmetry operations used in ECPInt.
 ECPInt:  NShTT=    1081 NPrTT=    4367 LenC2=    1079 LenP2D=    3696.
 LDataN:  DoStor=T MaxTD1= 6 Len=  172
 Calling FoFJK, ICntrl=    100127 FMM=F ISym2X=0 I1Cent= 0 IOpClX= 0 NMat=1 NMatS=1 NMatT=0.
 Full mass-weighted force constant matrix:
 Low frequencies ---  -11.4420    0.0009    0.0010    0.0013    8.0921   20.3858
 Low frequencies ---  143.0692  225.0687  313.1607
 Diagonal vibrational polarizability:

                      1                      2                      3
                      A                      A                      A
 Frequencies --    143.0532               225.0236               313.1454
 Red. masses --      2.4221                 3.3076                 1.5565
 Frc consts  --      0.0292                 0.0987                 0.0899
 IR Inten    --      5.7952                 3.5105               104.1204

                      4                      5                      6
                      A                      A                      A
 Frequencies --    356.4731               411.9827               532.1655
 Red. masses --      1.7563                 2.5812                 1.6251
 Frc consts  --      0.1315                 0.2581                 0.2712
 IR Inten    --     39.8275               100.9647                13.2556

                      7                      8                      9
                      A                      A                      A
 Frequencies --    671.5563               843.1200               912.8785
 Red. masses --      1.0831                 2.7307                 1.3041
 Frc consts  --      0.2878                 1.1437                 0.6403
 IR Inten    --     93.9513                 6.6958                 6.1498

                     10                     11                     12
                      A                      A                      A
 Frequencies --    944.3556               991.9322              1098.6561
 Red. masses --      2.0730                 2.0890                 1.3490
 Frc consts  --      1.0892                 1.2110                 0.9594
 IR Inten    --      7.1740                 0.0214                19.0847

                     13                     14                     15
                      A                      A                      A
 Frequencies --   1129.2192              1157.5945              1211.1531
 Red. masses --      3.5048                 2.8132                 1.3697
 Frc consts  --      2.6331                 2.2211                 1.1838
 IR Inten    --     53.2058               156.0485                 6.3865

                     16                     17                     18
                      A                      A                      A
 Frequencies --   1263.0947              1301.5701              1393.3735
 Red. masses --      1.2131                 1.2236                 1.4162
 Frc consts  --      1.1403                 1.2213                 1.6200
 IR Inten    --      8.1165                 8.6816                 4.8632

                     19                     20                     21
                      A                      A                      A
 Frequencies --   1398.2377              1421.7712              1443.9154
 Red. masses --      1.2139                 1.3236                 1.3710
 Frc consts  --      1.3982                 1.5764                 1.6841
 IR Inten    --      6.8670                 1.2500                30.9352

                     22                     23                     24
                      A                      A                      A
 Frequencies --   1465.3701              1487.1618              1507.6177
 Red. masses --      1.1185                 1.2378                 1.0911
 Frc consts  --      1.4151                 1.6130                 1.4612
 IR Inten    --      9.6885                98.5300                 9.0754

                     25                     26                     27
                      A                      A                      A
 Frequencies --   1520.0251              2966.8637              3022.4215
 Red. masses --      1.0938                 1.0734                 1.0672
 Frc consts  --      1.4889                 5.5669                 5.7437
 IR Inten    --      0.5942                75.9309                42.2607

                     28                     29                     30
                      A                      A                      A
 Frequencies --   3034.9210              3090.8715              3102.2391
 Red. masses --      1.0658                 1.1032                 1.0949
 Frc consts  --      5.7838                 6.2096                 6.2081
 IR Inten    --     35.9083                19.7994                40.7846

                     31                     32                     33
                      A                      A                      A
 Frequencies --   3112.7586              3693.7050              3759.3702
 Red. masses --      1.1025                 1.0652                 1.0659
 Frc consts  --      6.2936                 8.5627                 8.8759
 IR Inten    --     39.7507               136.0476                34.1480

 Optimization completed.
    -- Stationary point found.
 Normal termination of Gaussian 16 at Mon Feb  6 10:23:06 2023.
