 Gaussian 16, Revision B.01,
 Gaussian 16:  ES64L-G16RevB.01 20-Dec-2017

 --------------------------------------------------------------
 #T wB97XD//def2svpp Volume=tight Geom=AllCheckpoint Guess=Read
 --------------------------------------------------------------
 Structure from the checkpoint file:  "15.chk"
 -----
 Dimer
 -----
 Charge =  0 Multiplicity = 1

                         Standard orientation:
 ---------------------------------------------------------------------
 Center     Atomic      Atomic             Coordinates (Angstroms)
 Number     Number       Type             X           Y           Z
 ---------------------------------------------------------------------
      1          6           0        2.268184   -0.635005   -0.671838
      2          6           0        0.924867    0.014494   -1.002977
      3          6           0        0.076550    0.499870    0.191785
      4          6           0        0.748777    1.673044    0.912720
      5          6           0       -1.295744    0.975105   -0.337562
      6          8           0       -2.001204    0.004585   -1.057088
      7          6           0       -0.144800   -0.624429    1.220729
      8          8           0       -0.789641   -1.769168    0.690868
      9          1           0        2.810649   -0.885706   -1.599076
     10          1           0        2.153989   -1.575253   -0.102046
     11          1           0        2.918780    0.031018   -0.079572
     12          1           0        0.311943   -0.680139   -1.603329
     13          1           0        1.098699    0.883511   -1.663969
     14          1           0        0.941940    2.504279    0.212034
     15          1           0        1.713439    1.381812    1.363189
     16          1           0        0.108493    2.060779    1.725712
     17          1           0       -1.145358    1.831125   -1.019468
     18          1           0       -1.890792    1.349632    0.525399
     19          1           0       -1.987629   -0.809829   -0.525118
     20          1           0       -0.808001   -0.258982    2.022908
     21          1           0        0.813910   -0.905612    1.699473
     22          1           0       -0.180313   -2.228436    0.096477
 ---------------------------------------------------------------------

 SCF Done:  E(RwB97XD) =  -387.075244855     A.U. after    1 cycles

 The electronic state is 1-A.
 Alpha  occ. eigenvalues --  -19.27206 -19.22858 -10.34549 -10.32804 -10.30831
 Alpha  occ. eigenvalues --  -10.29350 -10.29305 -10.29105  -1.13318  -1.09457
 Alpha  occ. eigenvalues --   -0.91854  -0.83774  -0.77495  -0.76120  -0.72199
 Alpha  occ. eigenvalues --   -0.64969  -0.62244  -0.57815  -0.56101  -0.53915
 Alpha  occ. eigenvalues --   -0.53302  -0.50672  -0.49719  -0.48356  -0.47652
 Alpha  occ. eigenvalues --   -0.46999  -0.44534  -0.43233  -0.42987  -0.40846
 Alpha  occ. eigenvalues --   -0.39356  -0.35638  -0.33589
 Alpha virt. eigenvalues --    0.11053   0.13391   0.16125   0.16716   0.18524
 Alpha virt. eigenvalues --    0.19059   0.20311   0.21292   0.22393   0.23037
 Alpha virt. eigenvalues --    0.23881   0.25074   0.25631   0.27558   0.28891

 Mulliken charges:
               1
     1  C   -0.319407
     2  C   -0.206201
     3  C   -0.317410
     4  C   -0.286678
     5  C    0.106184
     6  O   -0.503255
     7  C    0.040518
     8  O   -0.500962
     9  H    0.129548
    10  H    0.104459
    11  H    0.122744
    12  H    0.109988
    13  H    0.106421
    14  H    0.122999
    15  H    0.123725
    16  H    0.119249
    17  H    0.093590
    18  H    0.081003
    19  H    0.323064
    20  H    0.108942
    21  H    0.108475
    22  H    0.333003
 Sum of Mulliken charges =  -0.00000

 Dipole moment (field-independent basis, Debye):
    X=              2.5649    Y=             -0.1235    Z=              1.0530  Tot=              2.7754
 Evaluate density.
 Using the total density.
 Monte-Carlo method of calculating molar volume:
 based on  0.001 e/bohr**3 density envelope.
 Number of points per bohr**3 =  100 CutOff= 1.00D-04
 Using the SCF density.
 There are      1829 points.  Will hold      1829 in memory.
 LenV=  1048277096 MDV=  1048576000.
 Box volume = 6123.682 fraction occupied=0.176
 Integrated density= 4.1201624050995335D+01 error=-2.4798375949004665D+01

 Normal termination of Gaussian 16 at Fri Feb  3 13:04:35 2023.
