 Gaussian 16, Revision B.01,
 Gaussian 16:  ES64L-G16RevB.01 20-Dec-2017

 ----------------------------------------------------------------------
 #T wB97XD/def2svpp opt=(tight,calcall) freq int(grid=ultrafine) scf=(v
 erytight,qc) Volume=tight
 ----------------------------------------------------------------------
 -------
 Monomer
 -------
 Symbolic Z-matrix:
 Charge =  0 Multiplicity = 1

 SCF Done:  E(RwB97XD) =  -158.275178462     a.u. after    6 cycles
 SCF Done:  E(RwB97XD) =  -158.275178314     a.u. after    2 cycles
 SCF Done:  E(RwB97XD) =  -158.275178769     a.u. after    2 cycles
 SCF Done:  E(RwB97XD) =  -158.275178825     a.u. after    2 cycles
 SCF Done:  E(RwB97XD) =  -158.275178186     a.u. after    2 cycles
 SCF Done:  E(RwB97XD) =  -158.275178571     a.u. after    2 cycles
 SCF Done:  E(RwB97XD) =  -158.275178494     a.u. after    2 cycles
 SCF Done:  E(RwB97XD) =  -158.275178834     a.u. after    2 cycles
 SCF Done:  E(RwB97XD) =  -158.275178702     a.u. after    2 cycles
 SCF Done:  E(RwB97XD) =  -158.275178560     a.u. after    2 cycles
 SCF Done:  E(RwB97XD) =  -158.275178333     a.u. after    2 cycles
 SCF Done:  E(RwB97XD) =  -158.275178597     a.u. after    2 cycles
 SCF Done:  E(RwB97XD) =  -158.275178200     a.u. after    2 cycles
 SCF Done:  E(RwB97XD) =  -158.275178572     a.u. after    2 cycles
 SCF Done:  E(RwB97XD) =  -158.275178402     a.u. after    2 cycles
 SCF Done:  E(RwB97XD) =  -158.275178749     a.u. after    2 cycles
 SCF Done:  E(RwB97XD) =  -158.275177472     a.u. after    2 cycles
 SCF Done:  E(RwB97XD) =  -158.275178457     a.u. after    2 cycles
 SCF Done:  E(RwB97XD) =  -158.275178737     a.u. after    2 cycles
 Optimization completed.
    -- Stationary point found.
 Normal termination of Gaussian 16 at Mon Nov 13 10:46:08 2023.

 ---------------------------------------------------------------------
 #T Geom=AllCheck Guess=TCheck SCRF=Check GenChk RwB97XD/def2SVPP Freq
 ---------------------------------------------------------------------
 Structure from the checkpoint file:  "5.chk"
 -------
 Monomer
 -------
 Charge =  0 Multiplicity = 1

                         Standard orientation:
 ---------------------------------------------------------------------
 Center     Atomic      Atomic             Coordinates (Angstroms)
 Number     Number       Type             X           Y           Z
 ---------------------------------------------------------------------
      1          6           0        0.310306    1.424178    0.095498
      2          6           0        0.000005    0.000016   -0.370742
      3          6           0        1.078230   -0.980827    0.095379
      4          6           0       -1.388537   -0.443364    0.095373
      5          1           0       -0.447121    2.140549   -0.269007
      6          1           0        1.296966    1.760614   -0.269265
      7          1           0        0.322854    1.481058    1.200036
      8          1           0        0.000012    0.000075   -1.477386
      9          1           0        1.121402   -1.020071    1.199912
     10          1           0        2.077291   -0.683154   -0.269328
     11          1           0        0.876123   -2.003531   -0.269276
     12          1           0       -2.173178    0.243014   -0.269272
     13          1           0       -1.444120   -0.461174    1.199907
     14          1           0       -1.630255   -1.457403   -0.269370
 ---------------------------------------------------------------------

 SCF Done:  E(RwB97XD) =  -158.275178737     a.u. after    1 cycles

 The electronic state is 1-A.
 Alpha  occ. eigenvalues --  -10.29497 -10.27761 -10.27761 -10.27759  -0.89347
 Alpha  occ. eigenvalues --   -0.76799  -0.76799  -0.64369  -0.54973  -0.51570
 Alpha  occ. eigenvalues --   -0.51570  -0.46462  -0.46461  -0.44288  -0.40808
 Alpha  occ. eigenvalues --   -0.40808  -0.39977
 Alpha virt. eigenvalues --    0.13264   0.17775   0.19134   0.19134   0.20819
 Alpha virt. eigenvalues --    0.20819   0.22274   0.24919   0.24919   0.27423
 Alpha virt. eigenvalues --    0.28727   0.32293   0.32293   0.48602   0.48603

 Mulliken charges:
               1
     1  C   -0.303770
     2  C   -0.206447
     3  C   -0.303766
     4  C   -0.303761
     5  H    0.116272
     6  H    0.116272
     7  H    0.108066
     8  H    0.095917
     9  H    0.108064
    10  H    0.116274
    11  H    0.116273
    12  H    0.116270
    13  H    0.108063
    14  H    0.116272
 Sum of Mulliken charges =   0.00000

 Dipole moment (field-independent basis, Debye):
    X=              0.0000    Y=              0.0000    Z=             -0.0996  Tot=              0.0996
  Exact polarizability:  45.978  -0.002  45.985  -0.000   0.002  41.353
 Approx polarizability:  44.229  -0.000  44.229  -0.000  -0.000  44.554
   1 Symmetry operations used in ECPInt.
 ECPInt:  NShTT=     990 NPrTT=    3998 LenC2=     991 LenP2D=    3480.
 LDataN:  DoStor=T MaxTD1= 6 Len=  172
 Calling FoFJK, ICntrl=    100127 FMM=F ISym2X=0 I1Cent= 0 IOpClX= 0 NMat=1 NMatS=1 NMatT=0.
 Full mass-weighted force constant matrix:
 Low frequencies ---   -5.1145   -0.0004    0.0007    0.0010   12.7151   16.8693
 Low frequencies ---  221.1420  272.6639  273.3571
 Diagonal vibrational polarizability:

                      1                      2                      3
                      A                      A                      A
 Frequencies --    221.1414               272.6633               273.3552
 Red. masses --      1.0126                 1.0661                 1.0668
 Frc consts  --      0.0292                 0.0467                 0.0470
 IR Inten    --      0.0000                 0.0037                 0.0036

                      4                      5                      6
                      A                      A                      A
 Frequencies --    377.1302               377.5409               443.4060
 Red. masses --      2.0583                 2.0557                 1.9238
 Frc consts  --      0.1725                 0.1726                 0.2228
 IR Inten    --      0.0068                 0.0066                 0.3597

                      7                      8                      9
                      A                      A                      A
 Frequencies --    820.2733               941.1219               941.2544
 Red. masses --      2.7215                 1.1871                 1.1871
 Frc consts  --      1.0789                 0.6195                 0.6196
 IR Inten    --      0.9481                 1.6209                 1.6133

                     10                     11                     12
                      A                      A                      A
 Frequencies --    967.6357               994.6459               994.8476
 Red. masses --      1.2036                 1.7154                 1.7156
 Frc consts  --      0.6640                 0.9999                 1.0004
 IR Inten    --      0.0004                 0.2801                 0.2820

                     13                     14                     15
                      A                      A                      A
 Frequencies --   1211.0235              1211.1151              1220.0356
 Red. masses --      1.6786                 1.6784                 1.9135
 Frc consts  --      1.4505                 1.4505                 1.6781
 IR Inten    --      2.4626                 2.4629                 0.8112

                     16                     17                     18
                      A                      A                      A
 Frequencies --   1371.5005              1371.5444              1417.0057
 Red. masses --      1.3369                 1.3372                 1.3862
 Frc consts  --      1.4817                 1.4820                 1.6399
 IR Inten    --      1.5270                 1.5312                12.3856

                     19                     20                     21
                      A                      A                      A
 Frequencies --   1417.1333              1434.5902              1476.3430
 Red. masses --      1.3853                 1.2430                 1.0461
 Frc consts  --      1.6392                 1.5072                 1.3434
 IR Inten    --     12.3806                 3.8052                 0.0001

                     22                     23                     24
                      A                      A                      A
 Frequencies --   1482.9796              1483.0666              1502.6634
 Red. masses --      1.0373                 1.0373                 1.0751
 Frc consts  --      1.3441                 1.3442                 1.4302
 IR Inten    --      0.2399                 0.2480                 5.1469

                     25                     26                     27
                      A                      A                      A
 Frequencies --   1502.7325              1509.4273              3019.1850
 Red. masses --      1.0751                 1.0448                 1.0376
 Frc consts  --      1.4304                 1.4025                 5.5727
 IR Inten    --      5.1574                22.2059                33.0644

                     28                     29                     30
                      A                      A                      A
 Frequencies --   3019.3601              3023.8616              3034.7724
 Red. masses --      1.0376                 1.0389                 1.0854
 Frc consts  --      5.5735                 5.5969                 5.8898
 IR Inten    --     32.9750                 9.0979                18.6323

                     31                     32                     33
                      A                      A                      A
 Frequencies --   3108.1992              3108.2933              3114.6866
 Red. masses --      1.1044                 1.1043                 1.1026
 Frc consts  --      6.2862                 6.2863                 6.3020
 IR Inten    --      5.5401                 5.3795                77.3811

                     34                     35                     36
                      A                      A                      A
 Frequencies --   3117.8148              3120.2385              3120.5572
 Red. masses --      1.1056                 1.1044                 1.1044
 Frc consts  --      6.3321                 6.3351                 6.3365
 IR Inten    --      0.4659                39.7018                39.7518

                           ! Non-Optimized Parameters !
 Normal termination of Gaussian 16 at Mon Nov 13 10:46:38 2023.
