 Gaussian 16, Revision B.01,
 Gaussian 16:  ES64L-G16RevB.01 20-Dec-2017

 ----------------------------------------------------------------------
 #T wB97XD/def2svpp opt=tight freq int(grid=ultrafine) scf=(verytight,q
 c) Volume=tight
 ----------------------------------------------------------------------
 -----
 Dimer
 -----
 Symbolic Z-matrix:
 Charge =  0 Multiplicity = 1

 SCF Done:  E(RwB97XD) =  -577.407350601     a.u. after    8 cycles
 SCF Done:  E(RwB97XD) =  -577.411259749     a.u. after    9 cycles
 SCF Done:  E(RwB97XD) =  -577.411863411     a.u. after    7 cycles
 SCF Done:  E(RwB97XD) =  -577.412236776     a.u. after    7 cycles
 SCF Done:  E(RwB97XD) =  -577.412335325     a.u. after    5 cycles
 SCF Done:  E(RwB97XD) =  -577.412389257     a.u. after    4 cycles
 SCF Done:  E(RwB97XD) =  -577.412418497     a.u. after    4 cycles
 SCF Done:  E(RwB97XD) =  -577.412439358     a.u. after    4 cycles
 SCF Done:  E(RwB97XD) =  -577.412459861     a.u. after    4 cycles
 SCF Done:  E(RwB97XD) =  -577.412469083     a.u. after    4 cycles
 SCF Done:  E(RwB97XD) =  -577.412491759     a.u. after    2 cycles
 SCF Done:  E(RwB97XD) =  -577.412492731     a.u. after    3 cycles
 SCF Done:  E(RwB97XD) =  -577.412493369     a.u. after    2 cycles
 SCF Done:  E(RwB97XD) =  -577.412493702     a.u. after    2 cycles
 SCF Done:  E(RwB97XD) =  -577.412493784     a.u. after    2 cycles
 SCF Done:  E(RwB97XD) =  -577.412493796     a.u. after    2 cycles
 SCF Done:  E(RwB97XD) =  -577.412493799     a.u. after    2 cycles
 SCF Done:  E(RwB97XD) =  -577.412493797     a.u. after    2 cycles
 SCF Done:  E(RwB97XD) =  -577.412493799     a.u. after    2 cycles
 Optimization completed.
    -- Stationary point found.
 Normal termination of Gaussian 16 at Mon Apr  1 15:45:41 2024.

 ---------------------------------------------------------------------
 #T Geom=AllCheck Guess=TCheck SCRF=Check GenChk RwB97XD/def2SVPP Freq
 ---------------------------------------------------------------------
 Structure from the checkpoint file:  "dimer.chk"
 -----
 Dimer
 -----
 Charge =  0 Multiplicity = 1

                         Standard orientation:
 ---------------------------------------------------------------------
 Center     Atomic      Atomic             Coordinates (Angstroms)
 Number     Number       Type             X           Y           Z
 ---------------------------------------------------------------------
      1          6           0       -3.813059   -0.060478   -0.873481
      2          6           0       -2.476930   -0.077248   -0.120326
      3          6           0       -2.652114   -0.645889    1.287244
      4          7           0       -1.478821   -0.906493   -0.821164
      5          6           0       -1.921308    1.360770   -0.045110
      6          8           0       -0.771327    1.496897    0.713000
      7          1           0       -4.566632    0.551324   -0.347218
      8          1           0       -4.218982   -1.083758   -0.970730
      9          1           0       -3.690335    0.354993   -1.891210
     10          1           0       -3.001219   -1.694281    1.248412
     11          1           0       -3.398492   -0.059740    1.850100
     12          1           0       -1.696700   -0.609023    1.833181
     13          1           0       -1.337202   -0.562817   -1.773090
     14          1           0       -1.809149   -1.870604   -0.899804
     15          1           0       -2.700899    2.003683    0.403177
     16          1           0       -1.775231    1.724086   -1.090624
     17          1           0        0.000693    1.155699    0.195938
     18          6           0        3.812987    0.060382   -0.873798
     19          6           0        2.476921    0.077236   -0.120534
     20          6           0        2.652222    0.646032    1.286958
     21          7           0        1.478752    0.906402   -0.821379
     22          6           0        1.921306   -1.360775   -0.045112
     23          8           0        0.771381   -1.496817    0.713098
     24          1           0        4.218904    1.083651   -0.971191
     25          1           0        3.690178   -0.355199   -1.891471
     26          1           0        4.566604   -0.551364   -0.347531
     27          1           0        3.398649    0.059946    1.849817
     28          1           0        1.696855    0.609226    1.832981
     29          1           0        3.001323    1.694420    1.247981
     30          1           0        1.337058    0.562624   -1.773257
     31          1           0        1.809068    1.870506   -0.900147
     32          1           0        2.700932   -2.003636    0.403189
     33          1           0        1.775151   -1.724210   -1.090574
     34          1           0       -0.000682   -1.155699    0.196045
 ---------------------------------------------------------------------

 SCF Done:  E(RwB97XD) =  -577.412493799     a.u. after    1 cycles

 The electronic state is 1-A.
 Alpha  occ. eigenvalues --  -19.20808 -19.20805 -14.43871 -14.43871 -10.32789
 Alpha  occ. eigenvalues --  -10.32789 -10.32186 -10.32186 -10.28592 -10.28592
 Alpha  occ. eigenvalues --  -10.27065 -10.27063  -1.08392  -1.07823  -0.99638
 Alpha  occ. eigenvalues --   -0.99223  -0.85651  -0.85228  -0.77558  -0.77554
 Alpha  occ. eigenvalues --   -0.75220  -0.74953  -0.65055  -0.64813  -0.60245
 Alpha  occ. eigenvalues --   -0.60003  -0.56656  -0.56261  -0.55682  -0.55261
 Alpha  occ. eigenvalues --   -0.53251  -0.52016  -0.50372  -0.49605  -0.47769
 Alpha  occ. eigenvalues --   -0.47461  -0.47002  -0.46807  -0.44872  -0.44850
 Alpha  occ. eigenvalues --   -0.43336  -0.43127  -0.42640  -0.42097  -0.39321
 Alpha  occ. eigenvalues --   -0.38312  -0.34190  -0.33384  -0.32545  -0.31832
 Alpha virt. eigenvalues --    0.10640   0.12676   0.15954   0.16593   0.17735
 Alpha virt. eigenvalues --    0.17990   0.18086   0.19075   0.19726   0.19883
 Alpha virt. eigenvalues --    0.21188   0.21884   0.22064   0.24056   0.24482

 Mulliken charges:
               1
     1  C   -0.268695
     2  C   -0.167337
     3  C   -0.270683
     4  N   -0.519644
     5  C    0.072569
     6  O   -0.509553
     7  H    0.119367
     8  H    0.110381
     9  H    0.104926
    10  H    0.103885
    11  H    0.112325
    12  H    0.162995
    13  H    0.222904
    14  H    0.237277
    15  H    0.089814
    16  H    0.057011
    17  H    0.342460
    18  C   -0.268695
    19  C   -0.167335
    20  C   -0.270684
    21  N   -0.519645
    22  C    0.072568
    23  O   -0.509552
    24  H    0.110381
    25  H    0.104926
    26  H    0.119367
    27  H    0.112325
    28  H    0.162995
    29  H    0.103885
    30  H    0.222903
    31  H    0.237277
    32  H    0.089814
    33  H    0.057011
    34  H    0.342458
 Sum of Mulliken charges =  -0.00000

 Dipole moment (field-independent basis, Debye):
    X=             -0.0002    Y=             -0.0003    Z=             -4.3723  Tot=              4.3723
  Exact polarizability: 128.264  -1.836 101.535  -0.001   0.000 102.259
 Approx polarizability: 117.263  -2.225 110.260  -0.000   0.000 113.094
   1 Symmetry operations used in ECPInt.
 ECPInt:  NShTT=    6786 NPrTT=   27250 LenC2=    6636 LenP2D=   19508.
 LDataN:  DoStor=T MaxTD1= 6 Len=  172
 Calling FoFJK, ICntrl=    100127 FMM=F ISym2X=0 I1Cent= 0 IOpClX= 0 NMat=1 NMatS=1 NMatT=0.
 Full mass-weighted force constant matrix:
 Low frequencies ---   -3.5136   -0.0005    0.0000    0.0009    5.6035   10.8030
 Low frequencies ---   31.1713   56.9697   71.5396
 Diagonal vibrational polarizability:

                      1                      2                      3
                      A                      A                      A
 Frequencies --     31.1684                56.9671                71.5228
 Red. masses --      3.2031                 3.1016                 3.5214
 Frc consts  --      0.0018                 0.0059                 0.0106
 IR Inten    --      0.4318                 1.0238                 0.8718

                      4                      5                      6
                      A                      A                      A
 Frequencies --     94.2608               127.4684               128.7927
 Red. masses --      4.3100                 2.2700                 3.9129
 Frc consts  --      0.0226                 0.0217                 0.0382
 IR Inten    --      0.0209                 3.7812                 0.4515

                      7                      8                      9
                      A                      A                      A
 Frequencies --    210.4825               230.2470               244.3704
 Red. masses --      2.8219                 1.1828                 1.3540
 Frc consts  --      0.0737                 0.0369                 0.0476
 IR Inten    --      4.0191                 0.0466                 2.6659

                     10                     11                     12
                      A                      A                      A
 Frequencies --    258.4491               262.1272               265.6846
 Red. masses --      2.4894                 3.1912                 2.6540
 Frc consts  --      0.0980                 0.1292                 0.1104
 IR Inten    --      0.9924                 0.2198                10.7317

                     13                     14                     15
                      A                      A                      A
 Frequencies --    278.6804               280.0860               334.9032
 Red. masses --      1.0814                 1.0549                 1.1352
 Frc consts  --      0.0495                 0.0488                 0.0750
 IR Inten    --      0.1010                 0.0470                 5.3628

                     16                     17                     18
                      A                      A                      A
 Frequencies --    344.0557               351.7432               375.8637
 Red. masses --      1.8050                 2.0733                 1.7128
 Frc consts  --      0.1259                 0.1511                 0.1426
 IR Inten    --      1.3741                 0.5764                 5.4650

                     19                     20                     21
                      A                      A                      A
 Frequencies --    398.0889               398.9132               434.9771
 Red. masses --      2.1003                 2.8830                 2.0658
 Frc consts  --      0.1961                 0.2703                 0.2303
 IR Inten    --      1.6746                 6.6374                 0.0907

                     22                     23                     24
                      A                      A                      A
 Frequencies --    436.4347               468.3952               497.9539
 Red. masses --      2.1298                 2.3064                 2.0132
 Frc consts  --      0.2390                 0.2981                 0.2941
 IR Inten    --      0.2067                 1.6593                16.0365

                     25                     26                     27
                      A                      A                      A
 Frequencies --    570.2980               580.7591               758.6475
 Red. masses --      2.9378                 3.0926                 1.5471
 Frc consts  --      0.5630                 0.6146                 0.5246
 IR Inten    --     10.1539                 0.0350               169.8517

                     28                     29                     30
                      A                      A                      A
 Frequencies --    781.8228               797.9314               887.0119
 Red. masses --      3.7796                 2.0841                 1.2324
 Frc consts  --      1.3612                 0.7818                 0.5713
 IR Inten    --      0.5115               108.1119                20.1576

                     31                     32                     33
                      A                      A                      A
 Frequencies --    920.4019               920.7273               955.0390
 Red. masses --      1.8637                 1.8510                 1.3194
 Frc consts  --      0.9302                 0.9245                 0.7090
 IR Inten    --      6.9454                 0.6386                20.3046

                     34                     35                     36
                      A                      A                      A
 Frequencies --    957.3563               964.3145               965.7520
 Red. masses --      1.4632                 1.3060                 1.6433
 Frc consts  --      0.7901                 0.7155                 0.9030
 IR Inten    --      0.5752                90.5529                 2.8985

                     37                     38                     39
                      A                      A                      A
 Frequencies --    971.7296              1000.6059              1001.2129
 Red. masses --      1.9832                 1.2641                 1.4030
 Frc consts  --      1.1034                 0.7457                 0.8286
 IR Inten    --    153.7879                 3.6834                 0.7537

                     40                     41                     42
                      A                      A                      A
 Frequencies --   1010.6170              1057.6035              1060.7663
 Red. masses --      1.3335                 1.4303                 1.4357
 Frc consts  --      0.8025                 0.9426                 0.9518
 IR Inten    --      1.4827                11.0733                 0.4583

                     43                     44                     45
                      A                      A                      A
 Frequencies --   1127.6380              1129.2389              1194.9110
 Red. masses --      1.4287                 1.3979                 4.8106
 Frc consts  --      1.0703                 1.0502                 4.0469
 IR Inten    --     16.1226                 0.0131               213.0891

                     46                     47                     48
                      A                      A                      A
 Frequencies --   1195.3022              1236.7019              1237.3726
 Red. masses --      5.2208                 2.0691                 2.1696
 Frc consts  --      4.3948                 1.8645                 1.9572
 IR Inten    --     55.2432                33.3155                 0.2867

                     49                     50                     51
                      A                      A                      A
 Frequencies --   1246.4631              1251.7598              1329.1841
 Red. masses --      1.7229                 1.7438                 1.6970
 Frc consts  --      1.5772                 1.6098                 1.7665
 IR Inten    --     50.6929                17.4111                 0.1737

                     52                     53                     54
                      A                      A                      A
 Frequencies --   1332.6610              1378.1556              1378.3982
 Red. masses --      1.7241                 1.5430                 1.4987
 Frc consts  --      1.8041                 1.7267                 1.6777
 IR Inten    --     45.4039                 1.7370                 0.6616

                     55                     56                     57
                      A                      A                      A
 Frequencies --   1412.5815              1413.6425              1418.5414
 Red. masses --      1.4244                 1.3932                 1.3769
 Frc consts  --      1.6746                 1.6403                 1.6325
 IR Inten    --      3.3536                20.0191                 7.7212

                     58                     59                     60
                      A                      A                      A
 Frequencies --   1419.8321              1441.7539              1444.7284
 Red. masses --      1.3637                 1.3192                 1.3286
 Frc consts  --      1.6197                 1.6157                 1.6338
 IR Inten    --      3.9738                54.7447                 2.6994

                     61                     62                     63
                      A                      A                      A
 Frequencies --   1476.0462              1476.2584              1480.6018
 Red. masses --      1.0545                 1.0547                 1.0616
 Frc consts  --      1.3536                 1.3543                 1.3712
 IR Inten    --      3.3716                 0.2560                 2.2670

                     64                     65                     66
                      A                      A                      A
 Frequencies --   1481.5752              1493.4008              1495.0961
 Red. masses --      1.0675                 1.0833                 1.0794
 Frc consts  --      1.3806                 1.4235                 1.4215
 IR Inten    --      1.7575                10.2670                 3.0986

                     67                     68                     69
                      A                      A                      A
 Frequencies --   1496.1550              1499.7654              1508.5392
 Red. masses --      1.0733                 1.0858                 1.1002
 Frc consts  --      1.4156                 1.4390                 1.4752
 IR Inten    --      1.2630                 0.1588                 1.7520

                     70                     71                     72
                      A                      A                      A
 Frequencies --   1509.7034              1549.2596              1555.0725
 Red. masses --      1.1156                 1.1238                 1.1190
 Frc consts  --      1.4981                 1.5892                 1.5943
 IR Inten    --     21.2855                98.1501                11.9016

                     73                     74                     75
                      A                      A                      A
 Frequencies --   1655.6109              1656.8541              2927.7217
 Red. masses --      1.0991                 1.1027                 1.0719
 Frc consts  --      1.7750                 1.7836                 5.4134
 IR Inten    --     50.7676                19.7994                80.1065

                     76                     77                     78
                      A                      A                      A
 Frequencies --   2928.7259              3018.6303              3018.7828
 Red. masses --      1.0722                 1.0380                 1.0380
 Frc consts  --      5.4183                 5.5726                 5.5733
 IR Inten    --    103.7012                27.2875                26.9648

                     79                     80                     81
                      A                      A                      A
 Frequencies --   3033.1715              3033.4534              3071.2986
 Red. masses --      1.0403                 1.0404                 1.0941
 Frc consts  --      5.6392                 5.6404                 6.0807
 IR Inten    --     40.4986                 7.7954               124.5165

                     82                     83                     84
                      A                      A                      A
 Frequencies --   3072.1004              3106.7649              3106.8007
 Red. masses --      1.0940                 1.1043                 1.1043
 Frc consts  --      6.0834                 6.2800                 6.2801
 IR Inten    --     16.1537                32.9896                21.1883

                     85                     86                     87
                      A                      A                      A
 Frequencies --   3118.7167              3118.7562              3123.5931
 Red. masses --      1.1038                 1.1038                 1.1032
 Frc consts  --      6.3252                 6.3256                 6.3420
 IR Inten    --      0.0354                 4.6390                18.0952

                     88                     89                     90
                      A                      A                      A
 Frequencies --   3123.7828              3161.2140              3161.4184
 Red. masses --      1.1031                 1.1040                 1.1040
 Frc consts  --      6.3422                 6.5005                 6.5010
 IR Inten    --     65.6083                11.7935                 0.0310

                     91                     92                     93
                      A                      A                      A
 Frequencies --   3326.4022              3353.4228              3472.0337
 Red. masses --      1.0695                 1.0688                 1.0510
 Frc consts  --      6.9726                 7.0816                 7.4650
 IR Inten    --    135.4939              2154.3263                 0.5684

                     94                     95                     96
                      A                      A                      A
 Frequencies --   3472.3584              3554.7716              3555.2390
 Red. masses --      1.0511                 1.0933                 1.0930
 Frc consts  --      7.4666                 8.1394                 8.1397
 IR Inten    --      0.0762                 3.8468                 0.2821

                           ! Non-Optimized Parameters !
 Normal termination of Gaussian 16 at Mon Apr  1 15:53:19 2024.
