 Gaussian 16, Revision B.01,
 Gaussian 16:  ES64L-G16RevB.01 20-Dec-2017

 --------------------------------------------------------------
 #T wB97XD//def2svpp Volume=tight Geom=AllCheckpoint Guess=Read
 --------------------------------------------------------------
 Structure from the checkpoint file:  "10.chk"
 -------
 Monomer
 -------
 Charge =  0 Multiplicity = 1

                         Standard orientation:
 ---------------------------------------------------------------------
 Center     Atomic      Atomic             Coordinates (Angstroms)
 Number     Number       Type             X           Y           Z
 ---------------------------------------------------------------------
      1          8           0       -0.180858    2.373198   -0.179397
      2          6           0        0.301777    1.238521   -0.856633
      3          6           0        0.025278   -0.003541   -0.005770
      4          6           0        0.391143   -1.279948   -0.789656
      5          8           0        1.777589   -1.387602   -1.073217
      6          6           0        0.841515    0.071078    1.307244
      7          8           0        2.210802    0.262122    1.086837
      8          6           0       -1.465482   -0.047271    0.336978
      9          8           0       -2.202974   -0.176515   -0.816076
     10          9           0       -1.718137   -1.128967    1.165749
     11          1           0        0.194200    3.166814   -0.578865
     12          1           0        1.394982    1.308954   -1.010131
     13          1           0       -0.193776    1.123642   -1.842307
     14          1           0       -0.204891   -1.342391   -1.717591
     15          1           0        0.138555   -2.157490   -0.175924
     16          1           0        1.993311   -0.837827   -1.837730
     17          1           0        0.646705   -0.847277    1.896281
     18          1           0        0.491161    0.929996    1.902086
     19          1           0        2.496262   -0.441516    0.479166
     20          1           0       -1.756648    0.847913    0.913001
     21          1           0       -3.138490   -0.032775   -0.617882
 ---------------------------------------------------------------------

 SCF Done:  E(RwB97XD) =  -597.204677353     A.U. after    1 cycles

 The electronic state is 1-A.
 Alpha  occ. eigenvalues --  -24.79814 -19.28029 -19.27412 -19.25882 -19.22901
 Alpha  occ. eigenvalues --  -10.41939 -10.34535 -10.34414 -10.32627 -10.31000
 Alpha  occ. eigenvalues --   -1.28709  -1.14462  -1.13447  -1.12161  -1.09430
 Alpha  occ. eigenvalues --   -0.90750  -0.77817  -0.77226  -0.75684  -0.66382
 Alpha  occ. eigenvalues --   -0.65546  -0.62988  -0.61313  -0.60358  -0.58539
 Alpha  occ. eigenvalues --   -0.56058  -0.54563  -0.52808  -0.51289  -0.49695
 Alpha  occ. eigenvalues --   -0.47979  -0.47579  -0.46566  -0.44632  -0.43874
 Alpha  occ. eigenvalues --   -0.41534  -0.40331  -0.39136  -0.36415  -0.35738
 Alpha  occ. eigenvalues --   -0.33802
 Alpha virt. eigenvalues --    0.11683   0.12471   0.13625   0.17876   0.19093
 Alpha virt. eigenvalues --    0.19648   0.20812   0.21770   0.23030   0.23605
 Alpha virt. eigenvalues --    0.24596   0.25134   0.28700   0.29268   0.30596

 Mulliken charges:
               1
     1  O   -0.489485
     2  C    0.053573
     3  C   -0.391535
     4  C    0.038293
     5  O   -0.499622
     6  C    0.091804
     7  O   -0.504387
     8  C    0.332422
     9  O   -0.436150
    10  F   -0.267456
    11  H    0.324518
    12  H    0.088537
    13  H    0.100357
    14  H    0.124649
    15  H    0.127467
    16  H    0.330272
    17  H    0.103604
    18  H    0.110373
    19  H    0.322156
    20  H    0.106129
    21  H    0.334484
 Sum of Mulliken charges =  -0.00000

 Dipole moment (field-independent basis, Debye):
    X=             -1.5041    Y=              1.6410    Z=             -3.0298  Tot=              3.7597
 Evaluate density.
 Using the total density.
 Monte-Carlo method of calculating molar volume:
 based on  0.001 e/bohr**3 density envelope.
 Number of points per bohr**3 =  100 CutOff= 1.00D-04
 Using the SCF density.
 There are      1796 points.  Will hold      1796 in memory.
 LenV=  1048231823 MDV=  1048576000.
 Box volume = 5799.865 fraction occupied=0.195
 Integrated density= 6.6674276730712364D+01 error=-1.5325723269287636D+01

 1\1\GINC-C382\SP\RwB97XD\def2SVPP\C5H11F1O4\PETERCHAO1\23-Sep-2022\0\\
 #T wB97XD//def2svpp Volume=tight Geom=AllCheckpoint Guess=Read\\Monome
 r\\0,1\O,0,-0.1808342157,2.3732003113,-0.179401384\C,0,0.3017885837,1.
 238517603,-0.8566381515\C,0,0.0252749238,-0.0035409389,-0.0057751983\C
 ,0,0.3911260639,-1.2799525681,-0.7896612568\O,0,1.7775700758,-1.387622
 6459,-1.0732213782\C,0,0.8415134343,0.071068346,1.3072392169\O,0,2.210
 8022735,0.2620973934,1.0868318563\C,0,-1.4654852911,-0.047254848,0.336
 9732507\O,0,-2.2029783529,-0.1764896815,-0.8160805355\F,0,-1.718152281

 Normal termination of Gaussian 16 at Fri Sep 23 14:27:53 2022.
