 Gaussian 16, Revision B.01,
 Gaussian 16:  ES64L-G16RevB.01 20-Dec-2017

 ----------------------------------------------------------------------
 #T wB97XD/def2svpp opt=tight freq int(grid=ultrafine) scf=(verytight,q
 c) Volume=tight
 ----------------------------------------------------------------------
 -----
 Dimer
 -----
 Symbolic Z-matrix:
 Charge =  0 Multiplicity = 1

 SCF Done:  E(RwB97XD) =  -5691.97534045     a.u. after    7 cycles
 SCF Done:  E(RwB97XD) =  -5691.97562646     a.u. after   13 cycles
 SCF Done:  E(RwB97XD) =  -5691.97776703     a.u. after    5 cycles
 SCF Done:  E(RwB97XD) =  -5691.97617175     a.u. after   11 cycles
 SCF Done:  E(RwB97XD) =  -5691.97953841     a.u. after   11 cycles
 SCF Done:  E(RwB97XD) =  -5691.98003686     a.u. after   11 cycles
 SCF Done:  E(RwB97XD) =  -5691.97964230     a.u. after    9 cycles
 SCF Done:  E(RwB97XD) =  -5691.98042556     a.u. after   12 cycles
 SCF Done:  E(RwB97XD) =  -5691.98056118     a.u. after    9 cycles
 SCF Done:  E(RwB97XD) =  -5691.98062708     a.u. after    9 cycles
 SCF Done:  E(RwB97XD) =  -5691.98109380     a.u. after    2 cycles
 SCF Done:  E(RwB97XD) =  -5691.98109419     a.u. after    2 cycles
 SCF Done:  E(RwB97XD) =  -5691.98109448     a.u. after    2 cycles
 SCF Done:  E(RwB97XD) =  -5691.98109462     a.u. after    2 cycles
 SCF Done:  E(RwB97XD) =  -5691.98109474     a.u. after    2 cycles
 SCF Done:  E(RwB97XD) =  -5691.98109470     a.u. after    2 cycles
 SCF Done:  E(RwB97XD) =  -5691.98109468     a.u. after    2 cycles
 SCF Done:  E(RwB97XD) =  -5691.98109471     a.u. after    2 cycles
 SCF Done:  E(RwB97XD) =  -5691.98109468     a.u. after    2 cycles
 Optimization completed.
    -- Stationary point found.
 Normal termination of Gaussian 16 at Mon Apr  1 17:06:08 2024.

 ---------------------------------------------------------------------
 #T Geom=AllCheck Guess=TCheck SCRF=Check GenChk RwB97XD/def2SVPP Freq
 ---------------------------------------------------------------------
 Structure from the checkpoint file:  "dimer.chk"
 -----
 Dimer
 -----
 Charge =  0 Multiplicity = 1

                         Standard orientation:
 ---------------------------------------------------------------------
 Center     Atomic      Atomic             Coordinates (Angstroms)
 Number     Number       Type             X           Y           Z
 ---------------------------------------------------------------------
      1          6           0        2.393696    1.812893   -0.723184
      2          6           0        2.337034    1.057412    0.612016
      3          6           0        3.716112    1.068262    1.281271
      4          6           0        1.359777    1.764094    1.576549
      5          8           0        0.001069    1.694010    1.202008
      6          6           0        1.814650   -0.370626    0.407063
      7         35           0        2.968059   -1.517807   -0.666866
      8          1           0        3.107208    1.333285   -1.413597
      9          1           0        2.717987    2.856943   -0.567131
     10          1           0        1.413365    1.826680   -1.234598
     11          1           0        3.708574    0.488064    2.221097
     12          1           0        4.025450    2.101836    1.517794
     13          1           0        4.478859    0.628566    0.618252
     14          1           0        1.671955    2.821341    1.688035
     15          1           0        1.411397    1.294970    2.572876
     16          1           0       -0.124490    1.969156    0.279897
     17          1           0        0.853597   -0.357166   -0.122987
     18          1           0        1.672792   -0.891333    1.365222
     19          6           0       -3.641477   -1.701310   -0.593361
     20          6           0       -3.051702   -0.839526    0.526647
     21          6           0       -3.978732   -0.861211    1.753835
     22          6           0       -1.672200   -1.405308    0.927239
     23          8           0       -1.058745   -0.730752    1.983717
     24          6           0       -2.954040    0.630705    0.105760
     25         35           0       -1.835173    0.979817   -1.473645
     26          1           0       -4.631522   -1.323488   -0.905353
     27          1           0       -3.771449   -2.742212   -0.249212
     28          1           0       -2.987922   -1.716570   -1.482593
     29          1           0       -3.534164   -0.297942    2.590266
     30          1           0       -4.129278   -1.901093    2.092587
     31          1           0       -4.970524   -0.434799    1.519569
     32          1           0       -1.024976   -1.439520    0.025394
     33          1           0       -1.815078   -2.450401    1.253398
     34          1           0       -0.735370    0.141777    1.680589
     35          1           0       -2.523118    1.251509    0.904351
     36          1           0       -3.941618    1.031653   -0.164771
 ---------------------------------------------------------------------

 SCF Done:  E(RwB97XD) =  -5691.98109468     a.u. after    1 cycles

 The electronic state is 1-A.
 Alpha  occ. eigenvalues -- -483.06166-483.04430 -62.64352 -62.62645 -56.45104
 Alpha  occ. eigenvalues --  -56.44780 -56.44768 -56.43411 -56.43059 -56.43051
 Alpha  occ. eigenvalues --  -19.28336 -19.23281 -10.35646 -10.35288 -10.34305
 Alpha  occ. eigenvalues --  -10.33146 -10.32937 -10.31952 -10.29595 -10.29307
 Alpha  occ. eigenvalues --  -10.28834 -10.28672  -8.81275  -8.79589  -6.63741
 Alpha  occ. eigenvalues --   -6.62563  -6.62518  -6.62118  -6.60837  -6.60808
 Alpha  occ. eigenvalues --   -2.74118  -2.73794  -2.73758  -2.72819  -2.72819
 Alpha  occ. eigenvalues --   -2.72485  -2.72127  -2.72103  -2.71082  -2.71082
 Alpha  occ. eigenvalues --   -1.14312  -1.09892  -0.94333  -0.94056  -0.88154
 Alpha  occ. eigenvalues --   -0.87542  -0.79506  -0.78557  -0.78163  -0.76226
 Alpha  occ. eigenvalues --   -0.76051  -0.75886  -0.65760  -0.64301  -0.61331
 Alpha  occ. eigenvalues --   -0.59766  -0.57386  -0.56689  -0.56054  -0.55620
 Alpha  occ. eigenvalues --   -0.53949  -0.53316  -0.51767  -0.50354  -0.48905
 Alpha  occ. eigenvalues --   -0.48777  -0.47745  -0.47277  -0.47042  -0.45576
 Alpha  occ. eigenvalues --   -0.45489  -0.45046  -0.44146  -0.43411  -0.43117
 Alpha  occ. eigenvalues --   -0.42360  -0.41815  -0.39302  -0.38062  -0.37107
 Alpha  occ. eigenvalues --   -0.36727  -0.35343  -0.35053  -0.33997
 Alpha virt. eigenvalues --    0.06930   0.08280   0.11974   0.13315   0.14227
 Alpha virt. eigenvalues --    0.16243   0.16340   0.17045   0.17900   0.18745
 Alpha virt. eigenvalues --    0.19257   0.19408   0.19605   0.20194   0.21727

 Mulliken charges:
               1
     1  C   -0.293776
     2  C   -0.298306
     3  C   -0.273442
     4  C    0.074209
     5  O   -0.519670
     6  C   -0.218220
     7  Br  -0.126535
     8  H    0.144424
     9  H    0.121956
    10  H    0.110677
    11  H    0.123487
    12  H    0.119361
    13  H    0.141814
    14  H    0.108657
    15  H    0.121025
    16  H    0.348248
    17  H    0.157969
    18  H    0.171427
    19  C   -0.276622
    20  C   -0.269793
    21  C   -0.269290
    22  C    0.051790
    23  O   -0.520087
    24  C   -0.222016
    25  Br  -0.146162
    26  H    0.117513
    27  H    0.122720
    28  H    0.134375
    29  H    0.137497
    30  H    0.122234
    31  H    0.114070
    32  H    0.110158
    33  H    0.098072
    34  H    0.355576
    35  H    0.167612
    36  H    0.159045
 Sum of Mulliken charges =   0.00000

 Dipole moment (field-independent basis, Debye):
    X=             -0.8208    Y=              2.1613    Z=              0.1246  Tot=              2.3153
  Exact polarizability: 160.447   6.807 141.190  -7.645   1.519 137.664
 Approx polarizability: 159.462   0.479 156.037  -9.992   1.695 162.239
   1 Symmetry operations used in ECPInt.
 ECPInt:  NShTT=    9870 NPrTT=   43080 LenC2=    9314 LenP2D=   27936.
 LDataN:  DoStor=T MaxTD1= 6 Len=  172
 Calling FoFJK, ICntrl=    100127 FMM=F ISym2X=0 I1Cent= 0 IOpClX= 0 NMat=1 NMatS=1 NMatT=0.
 Full mass-weighted force constant matrix:
 Low frequencies ---   -4.6844    0.0061    0.0083    0.0100    0.2375    4.2880
 Low frequencies ---   14.5160   33.0872   41.4288
 Diagonal vibrational polarizability:

                      1                      2                      3
                      A                      A                      A
 Frequencies --     14.4070                33.0729                41.4240
 Red. masses --     10.1980                 4.8777                 4.2667
 Frc consts  --      0.0012                 0.0031                 0.0043
 IR Inten    --      0.0297                 0.5185                 0.3392

                      4                      5                      6
                      A                      A                      A
 Frequencies --     62.4984                86.7356                96.8300
 Red. masses --      5.4266                 5.0199                 4.8897
 Frc consts  --      0.0125                 0.0223                 0.0270
 IR Inten    --      1.7012                 0.8013                 1.9825

                      7                      8                      9
                      A                      A                      A
 Frequencies --    114.2246               115.4688               161.6357
 Red. masses --      3.6930                 3.0297                 3.2619
 Frc consts  --      0.0284                 0.0238                 0.0502
 IR Inten    --      0.7014                 0.5809                 0.7837

                     10                     11                     12
                      A                      A                      A
 Frequencies --    189.8669               200.4786               222.4051
 Red. masses --      4.2138                 2.6997                 1.1682
 Frc consts  --      0.0895                 0.0639                 0.0340
 IR Inten    --      2.1496                 1.6760                 1.2355

                     13                     14                     15
                      A                      A                      A
 Frequencies --    230.0106               240.5073               253.7072
 Red. masses --      3.7132                 1.2110                 2.9808
 Frc consts  --      0.1157                 0.0413                 0.1130
 IR Inten    --      1.5335                 0.3118                 4.6089

                     16                     17                     18
                      A                      A                      A
 Frequencies --    267.3085               272.2461               288.5611
 Red. masses --      1.0954                 1.0681                 3.5809
 Frc consts  --      0.0461                 0.0466                 0.1757
 IR Inten    --      0.4471                 0.2946                 1.6682

                     19                     20                     21
                      A                      A                      A
 Frequencies --    320.3801               330.7138               351.6865
 Red. masses --      3.5090                 2.1133                 1.9186
 Frc consts  --      0.2122                 0.1362                 0.1398
 IR Inten    --      8.7675                 0.0446                 1.2666

                     22                     23                     24
                      A                      A                      A
 Frequencies --    367.5445               385.2353               407.6030
 Red. masses --      2.4681                 2.5366                 2.0302
 Frc consts  --      0.1964                 0.2218                 0.1987
 IR Inten    --      0.8764                 2.2378                 3.5071

                     25                     26                     27
                      A                      A                      A
 Frequencies --    448.0752               465.9040               468.8634
 Red. masses --      1.6748                 1.9059                 1.6796
 Frc consts  --      0.1981                 0.2438                 0.2175
 IR Inten    --     61.2589                24.8254                33.1565

                     28                     29                     30
                      A                      A                      A
 Frequencies --    537.6755               545.8745               676.9038
 Red. masses --      3.4921                 3.0661                 4.5426
 Frc consts  --      0.5948                 0.5383                 1.2263
 IR Inten    --     19.7190                 3.0950                18.5776

                     31                     32                     33
                      A                      A                      A
 Frequencies --    700.8664               759.9534               780.8892
 Red. masses --      3.6270                 1.3450                 3.4677
 Frc consts  --      1.0497                 0.4577                 1.2459
 IR Inten    --     40.0682               111.0088                13.5051

                     34                     35                     36
                      A                      A                      A
 Frequencies --    788.9574               870.8981               896.6257
 Red. masses --      2.2311                 1.6136                 1.4703
 Frc consts  --      0.8182                 0.7211                 0.6964
 IR Inten    --     44.8009                 5.7873                 7.6536

                     37                     38                     39
                      A                      A                      A
 Frequencies --    921.5014               927.4300               940.0299
 Red. masses --      1.9511                 2.0160                 1.6871
 Frc consts  --      0.9762                 1.0216                 0.8784
 IR Inten    --     15.7367                11.6414                 5.0768

                     40                     41                     42
                      A                      A                      A
 Frequencies --    943.4686               968.6641               970.3206
 Red. masses --      1.6499                 1.3628                 1.3424
 Frc consts  --      0.8653                 0.7534                 0.7447
 IR Inten    --      4.6773                 2.6150                 0.8007

                     43                     44                     45
                      A                      A                      A
 Frequencies --   1013.3310              1018.0360              1046.8833
 Red. masses --      1.3934                 1.5322                 1.3464
 Frc consts  --      0.8430                 0.9356                 0.8694
 IR Inten    --      3.6111                 5.8131                 4.6194

                     46                     47                     48
                      A                      A                      A
 Frequencies --   1051.2609              1132.6905              1140.4659
 Red. masses --      1.3817                 2.3171                 1.8906
 Frc consts  --      0.8997                 1.7516                 1.4489
 IR Inten    --      3.9441                70.8933               119.3432

                     49                     50                     51
                      A                      A                      A
 Frequencies --   1147.7389              1170.2200              1205.8179
 Red. masses --      1.4185                 3.5596                 1.6453
 Frc consts  --      1.1009                 2.8720                 1.4095
 IR Inten    --     15.7163                58.7216                 6.1444

                     52                     53                     54
                      A                      A                      A
 Frequencies --   1215.7323              1235.8579              1256.7502
 Red. masses --      1.2062                 1.9459                 1.6758
 Frc consts  --      1.0503                 1.7511                 1.5594
 IR Inten    --     37.6756                 6.6541                 9.7243

                     55                     56                     57
                      A                      A                      A
 Frequencies --   1281.5293              1295.6043              1314.8184
 Red. masses --      2.0180                 1.4315                 2.0421
 Frc consts  --      1.9527                 1.4158                 2.0800
 IR Inten    --      5.1022                27.7385                 9.1382

                     58                     59                     60
                      A                      A                      A
 Frequencies --   1324.3716              1331.1621              1335.4624
 Red. masses --      1.6843                 1.6264                 1.5182
 Frc consts  --      1.7406                 1.6980                 1.5953
 IR Inten    --      7.7003                33.0673                 9.5122

                     61                     62                     63
                      A                      A                      A
 Frequencies --   1383.0904              1404.4267              1415.6548
 Red. masses --      1.2846                 1.2476                 1.3381
 Frc consts  --      1.4479                 1.4499                 1.5799
 IR Inten    --      9.7823                 7.7734                15.3427

                     64                     65                     66
                      A                      A                      A
 Frequencies --   1421.9247              1423.3988              1437.2113
 Red. masses --      1.3416                 1.2617                 1.2638
 Frc consts  --      1.5981                 1.5061                 1.5380
 IR Inten    --      2.5977                11.7901                19.8707

                     67                     68                     69
                      A                      A                      A
 Frequencies --   1443.0769              1468.6582              1476.2989
 Red. masses --      1.2587                 1.1187                 1.0543
 Frc consts  --      1.5444                 1.4216                 1.3538
 IR Inten    --     41.8083                25.0559                 0.5552

                     70                     71                     72
                      A                      A                      A
 Frequencies --   1478.5105              1481.1179              1485.6043
 Red. masses --      1.0753                 1.0702                 1.0593
 Frc consts  --      1.3849                 1.3832                 1.3775
 IR Inten    --      3.0850                 6.3898                 2.7277

                     73                     74                     75
                      A                      A                      A
 Frequencies --   1487.5282              1493.1897              1498.8412
 Red. masses --      1.0879                 1.0794                 1.0747
 Frc consts  --      1.4183                 1.4180                 1.4224
 IR Inten    --     26.6684                21.3773                15.7691

                     76                     77                     78
                      A                      A                      A
 Frequencies --   1503.1474              1505.1487              1507.0420
 Red. masses --      1.0718                 1.0786                 1.0721
 Frc consts  --      1.4268                 1.4396                 1.4346
 IR Inten    --      4.5008                 8.6006                46.8010

                     79                     80                     81
                      A                      A                      A
 Frequencies --   1513.4068              1515.2929              2999.2518
 Red. masses --      1.0838                 1.0724                 1.0682
 Frc consts  --      1.4626                 1.4508                 5.6613
 IR Inten    --     17.2713                11.1749                39.7638

                     82                     83                     84
                      A                      A                      A
 Frequencies --   3022.4583              3026.8609              3030.2384
 Red. masses --      1.0659                 1.0402                 1.0376
 Frc consts  --      5.7370                 5.6149                 5.6135
 IR Inten    --     49.8046                20.2252                15.4559

                     85                     86                     87
                      A                      A                      A
 Frequencies --   3033.7511              3034.3735              3089.7743
 Red. masses --      1.0381                 1.0399                 1.0993
 Frc consts  --      5.6294                 5.6413                 6.1832
 IR Inten    --     29.6839                23.2726                39.1075

                     88                     89                     90
                      A                      A                      A
 Frequencies --   3105.2289              3113.4533              3114.1710
 Red. masses --      1.0604                 1.1034                 1.0973
 Frc consts  --      6.0243                 6.3020                 6.2700
 IR Inten    --      7.6069                20.4264                 6.6888

                     91                     92                     93
                      A                      A                      A
 Frequencies --   3116.5094              3119.5072              3122.1421
 Red. masses --      1.0667                 1.1050                 1.1041
 Frc consts  --      6.1043                 6.3353                 6.3412
 IR Inten    --      4.3664                 1.7188                21.7237

                     94                     95                     96
                      A                      A                      A
 Frequencies --   3122.6643              3130.6799              3137.3093
 Red. masses --      1.1040                 1.1043                 1.1037
 Frc consts  --      6.3425                 6.3771                 6.4007
 IR Inten    --     37.7438                16.7321                 7.1552

                     97                     98                     99
                      A                      A                      A
 Frequencies --   3144.1519              3146.3154              3179.7440
 Red. masses --      1.1035                 1.1042                 1.1114
 Frc consts  --      6.4273                 6.4401                 6.6206
 IR Inten    --      9.6440                 8.5298                 0.6953

                    100                    101                    102
                      A                      A                      A
 Frequencies --   3195.4505              3564.8553              3722.5284
 Red. masses --      1.1085                 1.0673                 1.0661
 Frc consts  --      6.6687                 7.9916                 8.7038
 IR Inten    --      0.2418               502.3349               109.8869

 Optimization completed.
    -- Stationary point found.
 Normal termination of Gaussian 16 at Mon Apr  1 17:19:47 2024.
