 Gaussian 16, Revision B.01,
 Gaussian 16:  ES64L-G16RevB.01 20-Dec-2017

 ----------------------------------------------------------------------
 #T wB97XD/def2svpp opt=tight freq int(grid=ultrafine) scf=(verytight,q
 c) Volume=tight
 ----------------------------------------------------------------------
 -----
 Dimer
 -----
 Symbolic Z-matrix:
 Charge =  0 Multiplicity = 1

 SCF Done:  E(RwB97XD) =  -3450.04111659     a.u. after    8 cycles
 SCF Done:  E(RwB97XD) =  -3450.04538434     a.u. after   11 cycles
 SCF Done:  E(RwB97XD) =  -3450.04598105     a.u. after    8 cycles
 SCF Done:  E(RwB97XD) =  -3450.04606847     a.u. after    4 cycles
 SCF Done:  E(RwB97XD) =  -3450.04610644     a.u. after    4 cycles
 SCF Done:  E(RwB97XD) =  -3450.04613402     a.u. after    4 cycles
 SCF Done:  E(RwB97XD) =  -3450.04614024     a.u. after    3 cycles
 SCF Done:  E(RwB97XD) =  -3450.04614499     a.u. after    2 cycles
 SCF Done:  E(RwB97XD) =  -3450.04614583     a.u. after    2 cycles
 SCF Done:  E(RwB97XD) =  -3450.04614618     a.u. after    2 cycles
 SCF Done:  E(RwB97XD) =  -3450.04614633     a.u. after    2 cycles
 SCF Done:  E(RwB97XD) =  -3450.04614633     a.u. after    2 cycles
 SCF Done:  E(RwB97XD) =  -3450.04614633     a.u. after    2 cycles
 SCF Done:  E(RwB97XD) =  -3450.04614633     a.u. after    2 cycles
 SCF Done:  E(RwB97XD) =  -3450.04614633     a.u. after    2 cycles
 SCF Done:  E(RwB97XD) =  -3450.04614633     a.u. after    2 cycles
 SCF Done:  E(RwB97XD) =  -3450.04614634     a.u. after    2 cycles
 SCF Done:  E(RwB97XD) =  -3450.04614634     a.u. after    2 cycles
 SCF Done:  E(RwB97XD) =  -3450.04614634     a.u. after    2 cycles
 Optimization completed.
    -- Stationary point found.
 Normal termination of Gaussian 16 at Mon Apr  1 16:10:59 2024.

 ---------------------------------------------------------------------
 #T Geom=AllCheck Guess=TCheck SCRF=Check GenChk RwB97XD/def2SVPP Freq
 ---------------------------------------------------------------------
 Structure from the checkpoint file:  "dimer.chk"
 -----
 Dimer
 -----
 Charge =  0 Multiplicity = 1

                         Standard orientation:
 ---------------------------------------------------------------------
 Center     Atomic      Atomic             Coordinates (Angstroms)
 Number     Number       Type             X           Y           Z
 ---------------------------------------------------------------------
      1          8           0        1.243507   -0.000003    1.326053
      2          6           0        1.874526   -0.000000    0.186380
      3          8           0        1.332679    0.000006   -0.905911
      4          6           0        3.399140   -0.000002    0.339438
      5          6           0        3.816381   -1.232993    1.160375
      6         17           0        3.278181   -2.767114    0.409285
      7          6           0        4.015979    0.000002   -1.064671
      8         17           0        5.809648    0.000005   -1.019850
      9          6           0        3.816383    1.232986    1.160381
     10         17           0        3.278185    2.767111    0.409298
     11          1           0        0.240629   -0.000001    1.189623
     12          1           0        3.368063   -1.196092    2.162520
     13          1           0        4.911608   -1.276911    1.242674
     14          1           0        3.703661    0.893764   -1.619258
     15          1           0        3.703664   -0.893758   -1.619262
     16          1           0        4.911609    1.276902    1.242680
     17          1           0        3.368065    1.196080    2.162525
     18          8           0       -1.243507    0.000005   -1.326055
     19          6           0       -1.874526    0.000003   -0.186381
     20          8           0       -1.332679    0.000004    0.905910
     21          6           0       -3.399140   -0.000001   -0.339438
     22          6           0       -3.816380   -1.232993   -1.160376
     23         17           0       -3.278177   -2.767113   -0.409288
     24          6           0       -4.015979   -0.000000    1.064671
     25         17           0       -5.809647   -0.000001    1.019851
     26          6           0       -3.816385    1.232987   -1.160380
     27         17           0       -3.278189    2.767112   -0.409295
     28          1           0       -0.240630    0.000006   -1.189625
     29          1           0       -3.368063   -1.196089   -2.162521
     30          1           0       -4.911606   -1.276912   -1.242674
     31          1           0       -3.703663    0.893762    1.619259
     32          1           0       -3.703661   -0.893761    1.619261
     33          1           0       -4.911612    1.276902   -1.242677
     34          1           0       -3.368069    1.196083   -2.162524
 ---------------------------------------------------------------------

 SCF Done:  E(RwB97XD) =  -3450.04614634     a.u. after    1 cycles

 The electronic state is 1-A.
 Alpha  occ. eigenvalues -- -101.68187-101.68187-101.68187-101.68187-101.67745
 Alpha  occ. eigenvalues -- -101.67745 -19.31827 -19.31826 -19.28802 -19.28800
 Alpha  occ. eigenvalues --  -10.47087 -10.47086 -10.37666 -10.37665 -10.37665
 Alpha  occ. eigenvalues --  -10.37664 -10.37003 -10.37003 -10.36445 -10.36445
 Alpha  occ. eigenvalues --   -9.58944  -9.58944  -9.58944  -9.58944  -9.58504
 Alpha  occ. eigenvalues --   -9.58504  -7.34342  -7.34342  -7.34342  -7.34342
 Alpha  occ. eigenvalues --   -7.33885  -7.33885  -7.33354  -7.33354  -7.33354
 Alpha  occ. eigenvalues --   -7.33354  -7.33323  -7.33323  -7.33323  -7.33323
 Alpha  occ. eigenvalues --   -7.32929  -7.32929  -7.32889  -7.32889  -1.24134
 Alpha  occ. eigenvalues --   -1.22844  -1.14769  -1.13323  -1.01036  -1.00918
 Alpha  occ. eigenvalues --   -0.96689  -0.96689  -0.95552  -0.95551  -0.89837
 Alpha  occ. eigenvalues --   -0.89524  -0.79641  -0.79428  -0.78173  -0.76686
 Alpha  occ. eigenvalues --   -0.76685  -0.76255  -0.69063  -0.67569  -0.63105
 Alpha  occ. eigenvalues --   -0.63057  -0.62689  -0.61304  -0.61095  -0.59835
 Alpha  occ. eigenvalues --   -0.57802  -0.57556  -0.57082  -0.56522  -0.54876
 Alpha  occ. eigenvalues --   -0.53213  -0.53131  -0.52809  -0.51757  -0.51168
 Alpha  occ. eigenvalues --   -0.51155  -0.50950  -0.49521  -0.49461  -0.48046
 Alpha  occ. eigenvalues --   -0.47778  -0.47735  -0.47168  -0.44308  -0.43266
 Alpha  occ. eigenvalues --   -0.41637  -0.41513  -0.40497  -0.39720  -0.39450
 Alpha  occ. eigenvalues --   -0.39379  -0.39379  -0.39064  -0.38904  -0.38903
 Alpha  occ. eigenvalues --   -0.38885  -0.38714  -0.38307  -0.38299
 Alpha virt. eigenvalues --    0.04904   0.05385   0.07349   0.07432   0.11055
 Alpha virt. eigenvalues --    0.11199   0.13469   0.13631   0.14614   0.14614
 Alpha virt. eigenvalues --    0.16174   0.16528   0.17868   0.17887   0.18323

 Mulliken charges:
               1
     1  O   -0.356332
     2  C    0.337669
     3  O   -0.302645
     4  C   -0.342605
     5  C   -0.132621
     6  Cl  -0.129848
     7  C   -0.090465
     8  Cl  -0.145864
     9  C   -0.132621
    10  Cl  -0.129848
    11  H    0.360549
    12  H    0.179553
    13  H    0.176014
    14  H    0.176747
    15  H    0.176747
    16  H    0.176015
    17  H    0.179553
    18  O   -0.356332
    19  C    0.337669
    20  O   -0.302645
    21  C   -0.342605
    22  C   -0.132621
    23  Cl  -0.129848
    24  C   -0.090465
    25  Cl  -0.145864
    26  C   -0.132621
    27  Cl  -0.129848
    28  H    0.360549
    29  H    0.179553
    30  H    0.176015
    31  H    0.176747
    32  H    0.176747
    33  H    0.176014
    34  H    0.179553
 Sum of Mulliken charges =  -0.00000

 Dipole moment (field-independent basis, Debye):
    X=             -0.0000    Y=             -0.0000    Z=             -0.0000  Tot=              0.0000
  Exact polarizability: 186.037  -0.000 167.153   1.686  -0.000 138.917
 Approx polarizability: 189.641  -0.000 187.889   7.587  -0.000 182.145
   1 Symmetry operations used in ECPInt.
 ECPInt:  NShTT=   12880 NPrTT=   55640 LenC2=   10889 LenP2D=   30280.
 LDataN:  DoStor=T MaxTD1= 6 Len=  172
 Calling FoFJK, ICntrl=    100127 FMM=F ISym2X=0 I1Cent= 0 IOpClX= 0 NMat=1 NMatS=1 NMatT=0.
 Full mass-weighted force constant matrix:
 Low frequencies ---   -1.9858   -0.0037   -0.0030    0.0018    2.3573    5.6146
 Low frequencies ---   13.2535   14.2658   38.0520
 Diagonal vibrational polarizability:

                      1                      2                      3
                      A                      A                      A
 Frequencies --     13.2535                14.2658                38.0498
 Red. masses --     15.8362                16.4371                20.3668
 Frc consts  --      0.0016                 0.0020                 0.0174
 IR Inten    --      0.2173                 0.2408                 0.0000

                      4                      5                      6
                      A                      A                      A
 Frequencies --     58.1361                59.4478                62.8303
 Red. masses --     11.6717                22.6185                15.5616
 Frc consts  --      0.0232                 0.0471                 0.0362
 IR Inten    --      2.3421                 0.0000                 1.3018

                      7                      8                      9
                      A                      A                      A
 Frequencies --     66.8999                78.4219                78.4702
 Red. masses --     14.0649                11.3653                15.2831
 Frc consts  --      0.0371                 0.0412                 0.0554
 IR Inten    --      0.0000                 5.6503                 0.0000

                     10                     11                     12
                      A                      A                      A
 Frequencies --     79.1236               111.3127               119.3614
 Red. masses --     11.3090                15.6694                 9.0274
 Frc consts  --      0.0417                 0.1144                 0.0758
 IR Inten    --      0.0000                 0.1607                 0.0000

                     13                     14                     15
                      A                      A                      A
 Frequencies --    123.3544               129.5759               159.7193
 Red. masses --     14.0042                 7.6084                 6.6744
 Frc consts  --      0.1256                 0.0753                 0.1003
 IR Inten    --      5.9223                 0.4743                 0.0000

                     16                     17                     18
                      A                      A                      A
 Frequencies --    161.2235               224.0482               227.0244
 Red. masses --      8.2447                 2.7291                 3.0488
 Frc consts  --      0.1263                 0.0807                 0.0926
 IR Inten    --      0.0000                 3.7720                 0.0000

                     19                     20                     21
                      A                      A                      A
 Frequencies --    228.5895               236.6161               277.5748
 Red. masses --      6.6509                 4.9215                 7.5838
 Frc consts  --      0.2048                 0.1623                 0.3443
 IR Inten    --      0.0000                31.7071                 0.0000

                     22                     23                     24
                      A                      A                      A
 Frequencies --    278.6594               305.9245               308.4656
 Red. masses --     10.4513                 6.6342                 2.3591
 Frc consts  --      0.4782                 0.3658                 0.1323
 IR Inten    --      0.6254                 0.0000                 8.3224

                     25                     26                     27
                      A                      A                      A
 Frequencies --    308.4783               311.2144               376.8892
 Red. masses --     10.8376                 2.3515                 3.5217
 Frc consts  --      0.6076                 0.1342                 0.2947
 IR Inten    --     14.4483                 0.0000                 9.8904

                     28                     29                     30
                      A                      A                      A
 Frequencies --    389.8779               489.4502               494.8791
 Red. masses --      5.5812                 3.5145                 3.6741
 Frc consts  --      0.4998                 0.4960                 0.5301
 IR Inten    --      0.0000                13.0876                 0.0000

                     31                     32                     33
                      A                      A                      A
 Frequencies --    516.3027               554.8418               643.2440
 Red. masses --      5.3927                 7.7884                 3.7184
 Frc consts  --      0.8470                 1.4127                 0.9065
 IR Inten    --      0.0000               138.8133                 0.0000

                     34                     35                     36
                      A                      A                      A
 Frequencies --    644.2750               738.6930               738.8194
 Red. masses --      3.4190                 7.4637                 7.3466
 Frc consts  --      0.8362                 2.3996                 2.3627
 IR Inten    --     22.8340                 0.0000                62.9168

                     37                     38                     39
                      A                      A                      A
 Frequencies --    772.9527               776.9143               782.5173
 Red. masses --      5.8628                 6.1565                 4.1701
 Frc consts  --      2.0638                 2.1894                 1.5045
 IR Inten    --      0.0000                51.2331                 4.5434

                     40                     41                     42
                      A                      A                      A
 Frequencies --    786.9852               811.0094               823.5312
 Red. masses --      4.5207                 5.4225                 5.8675
 Frc consts  --      1.6496                 2.1014                 2.3446
 IR Inten    --      0.0000                 0.0000                 6.0748

                     43                     44                     45
                      A                      A                      A
 Frequencies --    845.6439               848.6334               875.2451
 Red. masses --      4.8864                 4.9145                 1.6996
 Frc consts  --      2.0588                 2.0853                 0.7671
 IR Inten    --      0.0000                 1.7798                36.6836

                     46                     47                     48
                      A                      A                      A
 Frequencies --    875.3095               878.9535               881.3424
 Red. masses --      1.7116                 2.1213                 2.1982
 Frc consts  --      0.7726                 0.9656                 1.0060
 IR Inten    --      0.0000                 0.0000                98.1330

                     49                     50                     51
                      A                      A                      A
 Frequencies --    947.9816               948.2057              1006.7016
 Red. masses --      1.7249                 1.7244                 1.0694
 Frc consts  --      0.9133                 0.9135                 0.6385
 IR Inten    --      0.0000                 9.8269                 0.0000

                     52                     53                     54
                      A                      A                      A
 Frequencies --   1045.7523              1095.7615              1096.1211
 Red. masses --      1.1185                 1.9688                 1.9537
 Frc consts  --      0.7207                 1.3928                 1.3830
 IR Inten    --    189.3976                 0.0000                 8.2574

                     55                     56                     57
                      A                      A                      A
 Frequencies --   1103.1601              1104.0863              1202.3731
 Red. masses --      1.8600                 1.8398                 1.0344
 Frc consts  --      1.3336                 1.3214                 0.8811
 IR Inten    --      4.0648                 0.0000                 0.1016

                     58                     59                     60
                      A                      A                      A
 Frequencies --   1202.3826              1219.3315              1219.6651
 Red. masses --      1.0342                 3.5647                 3.6844
 Frc consts  --      0.8810                 3.1226                 3.2292
 IR Inten    --      0.0000                 1.4829                 0.0000

                     61                     62                     63
                      A                      A                      A
 Frequencies --   1248.4391              1248.9419              1286.2806
 Red. masses --      1.1524                 1.1530                 1.5227
 Frc consts  --      1.0583                 1.0597                 1.4843
 IR Inten    --      0.0000                 4.4489               100.8744

                     64                     65                     66
                      A                      A                      A
 Frequencies --   1286.4351              1332.5360              1333.8125
 Red. masses --      1.5146                 1.4425                 1.4728
 Frc consts  --      1.4768                 1.5091                 1.5438
 IR Inten    --      0.0000                52.8853                 0.0000

                     67                     68                     69
                      A                      A                      A
 Frequencies --   1342.6997              1343.0275              1362.4696
 Red. masses --      1.4816                 1.4833                 1.3648
 Frc consts  --      1.5737                 1.5763                 1.4928
 IR Inten    --      0.0000                38.4641                 6.8176

                     70                     71                     72
                      A                      A                      A
 Frequencies --   1363.6052              1402.8042              1410.3582
 Red. masses --      1.3836                 1.6189                 2.2555
 Frc consts  --      1.5158                 1.8770                 2.6433
 IR Inten    --      0.0000               219.9095                 0.0000

                     73                     74                     75
                      A                      A                      A
 Frequencies --   1459.4632              1459.4724              1465.2611
 Red. masses --      1.0876                 1.0876                 1.1764
 Frc consts  --      1.3649                 1.3649                 1.4881
 IR Inten    --      0.0052                15.8141                44.8013

                     76                     77                     78
                      A                      A                      A
 Frequencies --   1468.8768              1469.2585              1472.1053
 Red. masses --      1.1062                 1.0995                 1.0858
 Frc consts  --      1.4062                 1.3984                 1.3864
 IR Inten    --      0.0000                23.9065                 0.0000

                     79                     80                     81
                      A                      A                      A
 Frequencies --   1511.0662              1540.5163              1787.1699
 Red. masses --      2.1458                 1.8701                 6.6062
 Frc consts  --      2.8867                 2.6148                12.4317
 IR Inten    --    286.5842                 0.0000                 0.0000

                     82                     83                     84
                      A                      A                      A
 Frequencies --   1858.0842              2927.9614              3063.1772
 Red. masses --     11.0600                 1.0888                 1.0663
 Frc consts  --     22.4976                 5.4997                 5.8946
 IR Inten    --    701.9723                 0.0000              5362.0393

                     85                     86                     87
                      A                      A                      A
 Frequencies --   3112.4778              3112.4890              3116.6365
 Red. masses --      1.0592                 1.0592                 1.0596
 Frc consts  --      6.0456                 6.0456                 6.0640
 IR Inten    --      0.0001                 5.3447                12.8865

                     88                     89                     90
                      A                      A                      A
 Frequencies --   3116.6522              3137.3149              3137.3510
 Red. masses --      1.0596                 1.0604                 1.0604
 Frc consts  --      6.0641                 6.1495                 6.1495
 IR Inten    --      0.0001                 0.0000                 0.1357

                     91                     92                     93
                      A                      A                      A
 Frequencies --   3188.7756              3188.7765              3192.6221
 Red. masses --      1.1128                 1.1128                 1.1119
 Frc consts  --      6.6667                 6.6667                 6.6772
 IR Inten    --      0.0001                 0.0501                 0.0000

                     94                     95                     96
                      A                      A                      A
 Frequencies --   3192.6537              3212.2074              3212.2104
 Red. masses --      1.1118                 1.1117                 1.1117
 Frc consts  --      6.6770                 6.7582                 6.7582
 IR Inten    --      2.2272                 0.5635                 0.0001

 Optimization completed.
    -- Stationary point found.
 Normal termination of Gaussian 16 at Mon Apr  1 16:25:59 2024.
