 Gaussian 16, Revision B.01,
 Gaussian 16:  ES64L-G16RevB.01 20-Dec-2017

 ----------------------------------------------------------------------
 #T wB97XD/def2svpp opt=tight freq int(grid=ultrafine) scf=(verytight,q
 c)
 ----------------------------------------------------------------------
 -------
 comment
 -------
 Symbolic Z-matrix:
 Charge =  1 Multiplicity = 2

 SCF Done:  E(UwB97XD) =  -587.564757761     a.u. after   25 cycles
 SCF Done:  E(UwB97XD) =  -587.575156755     a.u. after   22 cycles
 SCF Done:  E(UwB97XD) =  -587.580398144     a.u. after   15 cycles
 SCF Done:  E(UwB97XD) =  -587.577928160     a.u. after   24 cycles
 SCF Done:  E(UwB97XD) =  -587.580820803     a.u. after   17 cycles
 SCF Done:  E(UwB97XD) =  -587.588219395     a.u. after   13 cycles
 SCF Done:  E(UwB97XD) =  -587.586085216     a.u. after   13 cycles
 SCF Done:  E(UwB97XD) =  -587.589147171     a.u. after   12 cycles
 SCF Done:  E(UwB97XD) =  -587.591595890     a.u. after   14 cycles
 SCF Done:  E(UwB97XD) =  -587.592128462     a.u. after   13 cycles
 SCF Done:  E(UwB97XD) =  -587.594615927     a.u. after    7 cycles
 SCF Done:  E(UwB97XD) =  -587.594622828     a.u. after    4 cycles
 SCF Done:  E(UwB97XD) =  -587.594629130     a.u. after    3 cycles
 SCF Done:  E(UwB97XD) =  -587.594629977     a.u. after    4 cycles
 SCF Done:  E(UwB97XD) =  -587.594630483     a.u. after    2 cycles
 SCF Done:  E(UwB97XD) =  -587.594630503     a.u. after    2 cycles
 SCF Done:  E(UwB97XD) =  -587.594630515     a.u. after    2 cycles
 SCF Done:  E(UwB97XD) =  -587.594630498     a.u. after    2 cycles
 SCF Done:  E(UwB97XD) =  -587.594630517     a.u. after    2 cycles
 Optimization completed.
    -- Stationary point found.
 Normal termination of Gaussian 16 at Mon Jul 10 20:21:25 2023.

 ---------------------------------------------------------------------
 #T Geom=AllCheck Guess=TCheck SCRF=Check GenChk UwB97XD/def2SVPP Freq
 ---------------------------------------------------------------------
 Structure from the checkpoint file:  "30.chk"
 -------
 comment
 -------
 Charge =  1 Multiplicity = 2

                         Standard orientation:
 ---------------------------------------------------------------------
 Center     Atomic      Atomic             Coordinates (Angstroms)
 Number     Number       Type             X           Y           Z
 ---------------------------------------------------------------------
      1          8           0        1.671938   -0.802233   -1.142488
      2          6           0        0.388890   -1.205086   -0.795688
      3          6           0       -0.192878   -0.300138    0.311950
      4          6           0       -1.577525   -0.773670    0.731548
      5          8           0       -2.319549   -0.828724   -0.445579
      6          6           0        0.848211   -0.257559    1.440022
      7          8           0        2.064549    0.133580    0.862700
      8          7           0       -0.312582    1.132331   -0.233530
      9          8           0        0.325750    1.393052   -1.240432
     10          8           0       -0.980332    1.899404    0.390082
     11          1           0        1.586669    0.154196   -1.436539
     12          1           0        0.427315   -2.254043   -0.469935
     13          1           0       -0.277219   -1.112027   -1.682510
     14          1           0       -1.986299   -0.058719    1.468459
     15          1           0       -1.477097   -1.762976    1.222634
     16          1           0       -3.265856   -0.917004   -0.263092
     17          1           0        0.909622   -1.238339    1.938873
     18          1           0        0.545231    0.516326    2.172556
     19          1           0        2.826671   -0.395646    1.162992
 ---------------------------------------------------------------------

 SCF Done:  E(UwB97XD) =  -587.594630517     a.u. after    1 cycles

 The electronic state is 2-A.
 Alpha  occ. eigenvalues --  -19.56338 -19.53489 -19.47554 -19.47452 -19.43005
 Alpha  occ. eigenvalues --  -14.86541 -10.57591 -10.57466 -10.56996 -10.53509
 Alpha  occ. eigenvalues --   -1.52409  -1.41520  -1.37708  -1.34670  -1.30027
 Alpha  occ. eigenvalues --   -1.14713  -1.00819  -0.99482  -0.96959  -0.88539
 Alpha  occ. eigenvalues --   -0.86021  -0.85517  -0.83528  -0.81787  -0.78864
 Alpha  occ. eigenvalues --   -0.78622  -0.77457  -0.75997  -0.73626  -0.72085
 Alpha  occ. eigenvalues --   -0.71098  -0.68585  -0.67359  -0.65698  -0.60837
 Alpha  occ. eigenvalues --   -0.59221  -0.58009  -0.57379  -0.56653  -0.53857
 Alpha virt. eigenvalues --   -0.16998  -0.06941  -0.03141  -0.02218  -0.01412
 Alpha virt. eigenvalues --   -0.00750   0.02804   0.03170   0.04416   0.06349
 Alpha virt. eigenvalues --    0.06826   0.07869   0.08893   0.10239   0.11066

  Beta  occ. eigenvalues --  -19.54935 -19.52630 -19.47552 -19.47458 -19.42987
  Beta  occ. eigenvalues --  -14.86550 -10.57473 -10.57453 -10.56992 -10.53519
  Beta  occ. eigenvalues --   -1.52399  -1.38797  -1.35564  -1.34353  -1.29971
  Beta  occ. eigenvalues --   -1.14186  -0.99979  -0.99014  -0.96859  -0.87807
  Beta  occ. eigenvalues --   -0.85348  -0.84102  -0.82994  -0.81027  -0.78563
  Beta  occ. eigenvalues --   -0.78449  -0.76776  -0.75386  -0.71701  -0.70933
  Beta  occ. eigenvalues --   -0.68388  -0.66873  -0.65786  -0.62141  -0.59215
  Beta  occ. eigenvalues --   -0.57957  -0.57337  -0.56596  -0.53787
  Beta virt. eigenvalues --   -0.32963  -0.16961  -0.06670  -0.03017  -0.01985
  Beta virt. eigenvalues --   -0.01198  -0.00436   0.03064   0.03436   0.04677
  Beta virt. eigenvalues --    0.06480   0.07122   0.08021   0.09137   0.10785

 Mulliken charges and spin densities:
               1          2
     1  O   -0.225114   0.539359
     2  C    0.001142  -0.007743
     3  C   -0.346254   0.075081
     4  C    0.095714  -0.005361
     5  O   -0.475904   0.006607
     6  C    0.071338  -0.010999
     7  O   -0.355849   0.308562
     8  N    0.295636  -0.002848
     9  O   -0.258552  -0.000282
    10  O   -0.151163   0.000942
    11  H    0.407884  -0.014355
    12  H    0.195924  -0.000374
    13  H    0.254987   0.070277
    14  H    0.175978   0.006754
    15  H    0.143045   0.000246
    16  H    0.366418  -0.000475
    17  H    0.187594  -0.000020
    18  H    0.218298   0.044715
    19  H    0.398879  -0.010086
 Sum of Mulliken charges =   1.00000   1.00000

 Dipole moment (field-independent basis, Debye):
    X=              1.8618    Y=             -5.1907    Z=              3.3447  Tot=              6.4495
  Exact polarizability:  75.542   1.271  61.217   1.206   9.341  83.499
 Approx polarizability:  82.711  -2.298  69.841  -9.531  11.505  95.831
                          Isotropic Fermi Contact Couplings
        Atom                 a.u.       MegaHertz       Gauss      10(-4) cm-1
     1  O(17)              0.24706    -149.76646     -53.44040     -49.95671
     2  C(13)             -0.02688     -30.21966     -10.78313     -10.08019
     3  C(13)              0.00837       9.41422       3.35923       3.14025
     4  C(13)             -0.00553      -6.21761      -2.21860      -2.07397
     5  O(17)              0.00094      -0.56682      -0.20225      -0.18907
     6  C(13)             -0.01739     -19.55461      -6.97757      -6.52272

                      1                      2                      3
                      A                      A                      A
 Frequencies --     72.5547               109.3979               145.6060
 Red. masses --     11.2996                 4.8339                 4.1895
 Frc consts  --      0.0350                 0.0341                 0.0523
 IR Inten    --      0.5063                 1.8290                 0.9140

                      4                      5                      6
                      A                      A                      A
 Frequencies --    188.2439               223.7762               262.1020
 Red. masses --      4.3044                 4.2049                 2.7730
 Frc consts  --      0.0899                 0.1241                 0.1122
 IR Inten    --      9.2912                32.2506                 4.1462

                      7                      8                      9
                      A                      A                      A
 Frequencies --    282.4907               301.2196               344.6710
 Red. masses --      1.9296                 1.6675                 2.7749
 Frc consts  --      0.0907                 0.0891                 0.1942
 IR Inten    --     56.9088                78.0977                19.0005

                     10                     11                     12
                      A                      A                      A
 Frequencies --    379.5219               397.5307               427.2535
 Red. masses --      2.6040                 2.1637                 6.0043
 Frc consts  --      0.2210                 0.2015                 0.6458
 IR Inten    --     10.1826                58.4011                 5.4008

                     13                     14                     15
                      A                      A                      A
 Frequencies --    457.2591               531.8842               579.3612
 Red. masses --      2.2969                 4.4645                 3.7575
 Frc consts  --      0.2830                 0.7441                 0.7431
 IR Inten    --     33.0929                17.6733                 9.2379

                     16                     17                     18
                      A                      A                      A
 Frequencies --    641.4961               768.5385               833.2670
 Red. masses --      3.8994                 4.8193                 1.2363
 Frc consts  --      0.9454                 1.6771                 0.5058
 IR Inten    --     11.5968                 1.3966                51.7482

                     19                     20                     21
                      A                      A                      A
 Frequencies --    848.2103               905.3214               911.6490
 Red. masses --      2.5955                 1.5043                 6.6683
 Frc consts  --      1.1002                 0.7264                 3.2653
 IR Inten    --     12.1070                40.3108                41.9133

                     22                     23                     24
                      A                      A                      A
 Frequencies --    973.1104              1052.4190              1083.6034
 Red. masses --      1.7534                 3.9416                 1.6145
 Frc consts  --      0.9783                 2.5722                 1.1169
 IR Inten    --      7.7913                 7.4581                29.7712

                     25                     26                     27
                      A                      A                      A
 Frequencies --   1108.5201              1136.8834              1160.5220
 Red. masses --      4.9514                 1.7004                 2.1426
 Frc consts  --      3.5848                 1.2949                 1.7002
 IR Inten    --     11.7446                 6.4154                 7.0587

                     28                     29                     30
                      A                      A                      A
 Frequencies --   1178.7922              1194.7083              1229.5797
 Red. masses --      2.3310                 2.3567                 1.3428
 Frc consts  --      1.9084                 1.9819                 1.1961
 IR Inten    --     41.2797                56.1517               126.6840

                     31                     32                     33
                      A                      A                      A
 Frequencies --   1251.3939              1281.7304              1299.7006
 Red. masses --      1.1650                 1.4177                 1.4203
 Frc consts  --      1.0749                 1.3722                 1.4136
 IR Inten    --     35.9771               178.4470                59.2104

                     34                     35                     36
                      A                      A                      A
 Frequencies --   1320.2780              1394.4704              1409.7500
 Red. masses --      1.3170                 1.3543                 1.2140
 Frc consts  --      1.3526                 1.5516                 1.4216
 IR Inten    --     21.1218                62.1571                17.0532

                     37                     38                     39
                      A                      A                      A
 Frequencies --   1449.8621              1470.5093              1479.0735
 Red. masses --      1.2280                 1.6557                 1.1107
 Frc consts  --      1.5209                 2.1094                 1.4316
 IR Inten    --     12.1641                25.5627                 2.0710

                     40                     41                     42
                      A                      A                      A
 Frequencies --   1490.6888              1521.7053              1798.4955
 Red. masses --      3.6085                 1.1155                11.6676
 Frc consts  --      4.7245                 1.5219                22.2357
 IR Inten    --     56.5898                13.0153               172.9894

                     43                     44                     45
                      A                      A                      A
 Frequencies --   2985.3195              3020.5556              3035.6617
 Red. masses --      1.0666                 1.0646                 1.0635
 Frc consts  --      5.6005                 5.7230                 5.7743
 IR Inten    --    148.4826                26.1055                29.7548

                     46                     47                     48
                      A                      A                      A
 Frequencies --   3096.6243              3137.4564              3169.9713
 Red. masses --      1.1033                 1.1062                 1.0956
 Frc consts  --      6.2331                 6.4157                 6.4864
 IR Inten    --      3.8590                25.0413                35.3309

                     49                     50                     51
                      A                      A                      A
 Frequencies --   3202.7820              3679.1339              3771.5942
 Red. masses --      1.0715                 1.0684                 1.0673
 Frc consts  --      6.4757                 8.5210                 8.9455
 IR Inten    --    440.3761               398.1952               165.4695

 Optimization completed.
    -- Stationary point found.
 Normal termination of Gaussian 16 at Mon Jul 10 20:24:59 2023.
