 Gaussian 16, Revision B.01,
 Gaussian 16:  ES64L-G16RevB.01 20-Dec-2017

 ----------------------------------------------------------------------
 #T wB97XD/def2svpp opt=tight freq int(grid=ultrafine) scf=(verytight,q
 c)
 ----------------------------------------------------------------------
 -----
 dimer
 -----
 Symbolic Z-matrix:
 Charge =  0 Multiplicity = 1

 SCF Done:  E(RwB97XD) =  -1175.92119501     a.u. after    9 cycles
 SCF Done:  E(RwB97XD) =  -1175.92413588     a.u. after   11 cycles
 SCF Done:  E(RwB97XD) =  -1175.92385772     a.u. after   11 cycles
 SCF Done:  E(RwB97XD) =  -1175.92553922     a.u. after   11 cycles
 SCF Done:  E(RwB97XD) =  -1175.92593076     a.u. after    9 cycles
 SCF Done:  E(RwB97XD) =  -1175.92599101     a.u. after    7 cycles
 SCF Done:  E(RwB97XD) =  -1175.92620658     a.u. after    7 cycles
 SCF Done:  E(RwB97XD) =  -1175.92625967     a.u. after    6 cycles
 SCF Done:  E(RwB97XD) =  -1175.92638370     a.u. after    6 cycles
 SCF Done:  E(RwB97XD) =  -1175.92646746     a.u. after    5 cycles
 SCF Done:  E(RwB97XD) =  -1175.92659142     a.u. after    2 cycles
 SCF Done:  E(RwB97XD) =  -1175.92659149     a.u. after    2 cycles
 SCF Done:  E(RwB97XD) =  -1175.92659158     a.u. after    2 cycles
 SCF Done:  E(RwB97XD) =  -1175.92659162     a.u. after    2 cycles
 SCF Done:  E(RwB97XD) =  -1175.92659163     a.u. after    2 cycles
 SCF Done:  E(RwB97XD) =  -1175.92659164     a.u. after    2 cycles
 SCF Done:  E(RwB97XD) =  -1175.92659164     a.u. after    2 cycles
 SCF Done:  E(RwB97XD) =  -1175.92659164     a.u. after    2 cycles
 SCF Done:  E(RwB97XD) =  -1175.92659164     a.u. after    2 cycles
 Optimization completed.
    -- Stationary point found.
 Normal termination of Gaussian 16 at Tue Aug  9 18:50:29 2022.

 ---------------------------------------------------------------------
 #T Geom=AllCheck Guess=TCheck SCRF=Check GenChk RwB97XD/def2SVPP Freq
 ---------------------------------------------------------------------
 Structure from the checkpoint file:  "/scratch/user/peterchao1/peterchao1/6113328_1660079103000000872597283/Gau-200224.chk"
 -----
 dimer
 -----
 Charge =  0 Multiplicity = 1

                         Standard orientation:
 ---------------------------------------------------------------------
 Center     Atomic      Atomic             Coordinates (Angstroms)
 Number     Number       Type             X           Y           Z
 ---------------------------------------------------------------------
      1          8           0       -3.947294   -0.933686   -1.528023
      2          6           0       -3.394330    0.316509   -1.187596
      3          6           0       -2.669937    0.328518    0.161767
      4          6           0       -2.255493    1.765476    0.548530
      5          8           0       -1.788551    2.527203   -0.513653
      6          6           0       -3.520706   -0.304587    1.284599
      7          8           0       -3.719108   -1.668458    1.106143
      8          7           0       -1.427366   -0.540487    0.066382
      9          8           0       -0.688119   -0.554911    1.032308
     10          8           0       -1.235952   -1.190446   -0.935025
     11          1           0       -3.222934   -1.491231   -1.850712
     12          1           0       -4.233039    1.025998   -1.105255
     13          1           0       -2.722913    0.697875   -1.973315
     14          1           0       -1.534655    1.709691    1.385747
     15          1           0       -3.168171    2.257127    0.927258
     16          1           0       -0.853778    2.305981   -0.681394
     17          1           0       -4.471471    0.266745    1.320277
     18          1           0       -3.007174   -0.167037    2.249875
     19          1           0       -4.151750   -1.779792    0.240646
     20          8           0        3.307054   -1.734046   -1.214361
     21          6           0        2.361115   -0.694049   -1.237183
     22          6           0        2.522703    0.177222    0.025217
     23          6           0        2.478567   -0.699117    1.301116
     24          8           0        1.790866   -1.903927    1.124351
     25          6           0        3.847191    0.984717   -0.020146
     26          8           0        4.952697    0.144093   -0.032901
     27          7           0        1.416005    1.198574    0.059892
     28          8           0        1.295835    1.881142    1.045999
     29          8           0        0.709809    1.304222   -0.931829
     30          1           0        3.003858   -2.365185   -0.536615
     31          1           0        1.331311   -1.081386   -1.299603
     32          1           0        2.550546   -0.094630   -2.140306
     33          1           0        2.078529   -0.099020    2.137376
     34          1           0        3.520047   -0.958900    1.539072
     35          1           0        0.836164   -1.713122    1.079516
     36          1           0        3.915067    1.622375    0.877301
     37          1           0        3.809462    1.649541   -0.909583
     38          1           0        4.767884   -0.609277   -0.626107
 ---------------------------------------------------------------------

 SCF Done:  E(RwB97XD) =  -1175.92659164     a.u. after    1 cycles

 The electronic state is 1-A.
 Alpha  occ. eigenvalues --  -19.33606 -19.33326 -19.32828 -19.32825 -19.28685
 Alpha  occ. eigenvalues --  -19.28019 -19.27209 -19.26381 -19.26092 -19.26086
 Alpha  occ. eigenvalues --  -14.71770 -14.71405 -10.38067 -10.37948 -10.37220
 Alpha  occ. eigenvalues --  -10.37106 -10.37039 -10.36960 -10.36580 -10.36434
 Alpha  occ. eigenvalues --   -1.37851  -1.37307  -1.19929  -1.19325  -1.15593
 Alpha  occ. eigenvalues --   -1.15527  -1.13334  -1.13240  -1.13103  -1.12578
 Alpha  occ. eigenvalues --   -0.96320  -0.96128  -0.82016  -0.80349  -0.80237
 Alpha  occ. eigenvalues --   -0.79793  -0.79090  -0.78435  -0.71062  -0.69610
 Alpha  occ. eigenvalues --   -0.68804  -0.67368  -0.66434  -0.66173  -0.65742
 Alpha  occ. eigenvalues --   -0.65041  -0.64016  -0.63211  -0.61967  -0.61455
 Alpha  occ. eigenvalues --   -0.59031  -0.58456  -0.57006  -0.56766  -0.56084
 Alpha  occ. eigenvalues --   -0.54990  -0.54297  -0.52980  -0.52640  -0.51242
 Alpha  occ. eigenvalues --   -0.50944  -0.50282  -0.47673  -0.46924  -0.46108
 Alpha  occ. eigenvalues --   -0.45545  -0.44911  -0.44715  -0.44033  -0.43341
 Alpha  occ. eigenvalues --   -0.42582  -0.41995  -0.41419  -0.40887  -0.39592
 Alpha  occ. eigenvalues --   -0.39003  -0.37659  -0.37526  -0.36811  -0.36731
 Alpha virt. eigenvalues --   -0.03506  -0.02417   0.11985   0.12151   0.13333
 Alpha virt. eigenvalues --    0.14534   0.15026   0.16617   0.17240   0.17887
 Alpha virt. eigenvalues --    0.17979   0.18426   0.19444   0.19455   0.20317

 Mulliken charges:
               1
     1  O   -0.503441
     2  C    0.090163
     3  C   -0.318169
     4  C    0.065095
     5  O   -0.484373
     6  C    0.096908
     7  O   -0.489212
     8  N    0.284065
     9  O   -0.273580
    10  O   -0.232790
    11  H    0.341959
    12  H    0.128708
    13  H    0.136284
    14  H    0.140300
    15  H    0.119426
    16  H    0.327907
    17  H    0.115869
    18  H    0.133180
    19  H    0.327780
    20  O   -0.507242
    21  C    0.089889
    22  C   -0.338841
    23  C    0.055207
    24  O   -0.503011
    25  C    0.111123
    26  O   -0.486249
    27  N    0.262966
    28  O   -0.211253
    29  O   -0.277995
    30  H    0.352266
    31  H    0.123825
    32  H    0.126974
    33  H    0.142505
    34  H    0.141237
    35  H    0.335104
    36  H    0.131114
    37  H    0.107273
    38  H    0.339029
 Sum of Mulliken charges =  -0.00000

 Dipole moment (field-independent basis, Debye):
    X=             -1.7479    Y=              0.6658    Z=             -0.3420  Tot=              1.9014
  Exact polarizability: 144.716  -6.315 119.337   4.096   5.431 120.544
 Approx polarizability: 142.391  -6.327 138.958  10.521  13.667 161.776
   1 Symmetry operations used in ECPInt.
 ECPInt:  NShTT=   12246 NPrTT=   49142 LenC2=   11289 LenP2D=   30922.
 LDataN:  DoStor=T MaxTD1= 6 Len=  172
 Calling FoFJK, ICntrl=    100127 FMM=F ISym2X=0 I1Cent= 0 IOpClX= 0 NMat=1 NMatS=1 NMatT=0.
 Full mass-weighted force constant matrix:
 Low frequencies ---   -6.8569   -0.0008   -0.0007    0.0009    4.6111    7.6967
 Low frequencies ---   27.5095   37.9457   44.3035
 Diagonal vibrational polarizability:

                      1                      2                      3
                      A                      A                      A
 Frequencies --     27.3306                37.8734                44.2813
 Red. masses --      6.0209                 7.3217                 7.4464
 Frc consts  --      0.0026                 0.0062                 0.0086
 IR Inten    --      0.0519                 1.2984                 0.5573

                      4                      5                      6
                      A                      A                      A
 Frequencies --     64.2387                70.9285                84.5050
 Red. masses --      7.3159                 8.1560                 6.1021
 Frc consts  --      0.0178                 0.0242                 0.0257
 IR Inten    --      3.5585                 0.2165                 0.2507

                      7                      8                      9
                      A                      A                      A
 Frequencies --    106.8731               115.2850               148.0949
 Red. masses --     11.5032                 9.2788                 5.2540
 Frc consts  --      0.0774                 0.0727                 0.0679
 IR Inten    --      1.5566                 1.2119                 4.5090

                     10                     11                     12
                      A                      A                      A
 Frequencies --    158.6126               183.1798               185.6251
 Red. masses --      4.0677                 4.6825                 4.1169
 Frc consts  --      0.0603                 0.0926                 0.0836
 IR Inten    --     10.4596                 4.8161                 9.2122

                     13                     14                     15
                      A                      A                      A
 Frequencies --    186.1946               201.1991               208.3230
 Red. masses --      6.2935                 4.9959                 3.6351
 Frc consts  --      0.1286                 0.1192                 0.0929
 IR Inten    --      2.4287                 1.9225                15.7992

                     16                     17                     18
                      A                      A                      A
 Frequencies --    215.9384               240.8055               257.4243
 Red. masses --      5.4088                 4.5956                 5.8257
 Frc consts  --      0.1486                 0.1570                 0.2275
 IR Inten    --      3.6248                 3.0851                 3.5816

                     19                     20                     21
                      A                      A                      A
 Frequencies --    286.4758               308.0938               316.1381
 Red. masses --      3.1095                 4.5734                 2.9206
 Frc consts  --      0.1504                 0.2558                 0.1720
 IR Inten    --      1.4883                 3.3293                 2.0519

                     22                     23                     24
                      A                      A                      A
 Frequencies --    328.2226               375.3997               376.9941
 Red. masses --      2.6890                 2.3483                 2.3940
 Frc consts  --      0.1707                 0.1950                 0.2005
 IR Inten    --      1.0151                 3.4085                 7.6523

                     25                     26                     27
                      A                      A                      A
 Frequencies --    385.5160               396.9128               416.8885
 Red. masses --      6.6526                 4.5694                 6.8593
 Frc consts  --      0.5825                 0.4241                 0.7024
 IR Inten    --      4.2431                 5.2927                 5.7502

                     28                     29                     30
                      A                      A                      A
 Frequencies --    417.8392               489.1967               532.5416
 Red. masses --      7.5914                 1.2173                 4.7427
 Frc consts  --      0.7809                 0.1716                 0.7925
 IR Inten    --      6.8003               190.7518                17.8341

                     31                     32                     33
                      A                      A                      A
 Frequencies --    532.7008               552.2408               578.9036
 Red. masses --      4.3958                 1.8436                 1.6123
 Frc consts  --      0.7349                 0.3313                 0.3184
 IR Inten    --     10.7746                60.6183               148.8522

                     34                     35                     36
                      A                      A                      A
 Frequencies --    595.3735               624.9925               643.4848
 Red. masses --      2.9770                 1.1748                 4.1263
 Frc consts  --      0.6217                 0.2704                 1.0067
 IR Inten    --     28.2945                72.5966                49.6661

                     37                     38                     39
                      A                      A                      A
 Frequencies --    657.6270               715.5967               733.3946
 Red. masses --      1.1603                 1.1413                 1.3040
 Frc consts  --      0.2956                 0.3444                 0.4133
 IR Inten    --     25.3301               166.3314               158.7406

                     40                     41                     42
                      A                      A                      A
 Frequencies --    758.3267               768.9110               779.4115
 Red. masses --      4.0239                 2.8552                 4.7725
 Frc consts  --      1.3634                 0.9946                 1.7082
 IR Inten    --     31.4038                27.2305                14.9882

                     43                     44                     45
                      A                      A                      A
 Frequencies --    817.2475               850.6192               917.4303
 Red. masses --      3.2246                 2.6522                 4.1044
 Frc consts  --      1.2689                 1.1306                 2.0354
 IR Inten    --      0.7451                13.4086                47.1682

                     46                     47                     48
                      A                      A                      A
 Frequencies --    920.9499               935.8363               973.3359
 Red. masses --      7.4720                 1.5235                 1.4737
 Frc consts  --      3.7339                 0.7861                 0.8226
 IR Inten    --     33.6755                12.0541                 9.1190

                     49                     50                     51
                      A                      A                      A
 Frequencies --    989.5693               998.4978              1090.7063
 Red. masses --      1.9188                 1.5506                 2.6355
 Frc consts  --      1.1070                 0.9109                 1.8473
 IR Inten    --      4.1179                 1.0064                17.5712

                     52                     53                     54
                      A                      A                      A
 Frequencies --   1105.6503              1121.3327              1131.7674
 Red. masses --      4.7624                 2.4128                 4.5760
 Frc consts  --      3.4302                 1.7875                 3.4534
 IR Inten    --     23.0870                53.8608                 5.7044

                     55                     56                     57
                      A                      A                      A
 Frequencies --   1133.5094              1149.5125              1162.7145
 Red. masses --      3.7139                 3.2053                 3.1660
 Frc consts  --      2.8114                 2.4955                 2.5218
 IR Inten    --     40.7295                88.7421                 3.8195

                     58                     59                     60
                      A                      A                      A
 Frequencies --   1176.0073              1178.9407              1194.9002
 Red. masses --      3.1561                 3.3892                 5.2583
 Frc consts  --      2.5717                 2.7754                 4.4234
 IR Inten    --    222.6194               204.3212                25.0511

                     61                     62                     63
                      A                      A                      A
 Frequencies --   1204.7190              1212.9910              1259.1090
 Red. masses --      1.7725                 2.2452                 1.0700
 Frc consts  --      1.5157                 1.9463                 0.9994
 IR Inten    --     10.7901                 5.5066                14.3676

                     64                     65                     66
                      A                      A                      A
 Frequencies --   1262.1056              1279.9144              1280.8991
 Red. masses --      1.3040                 1.2903                 1.4012
 Frc consts  --      1.2238                 1.2454                 1.3545
 IR Inten    --     36.4060                12.7956                30.9441

                     67                     68                     69
                      A                      A                      A
 Frequencies --   1326.9308              1337.0822              1387.2781
 Red. masses --      1.6956                 1.4536                 1.2460
 Frc consts  --      1.7590                 1.5312                 1.4129
 IR Inten    --      4.9267                17.5705                 1.7956

                     70                     71                     72
                      A                      A                      A
 Frequencies --   1392.8583              1398.1878              1414.7456
 Red. masses --      1.3094                 1.2921                 1.3322
 Frc consts  --      1.4967                 1.4883                 1.5710
 IR Inten    --     21.9297                 5.0906                 5.1904

                     73                     74                     75
                      A                      A                      A
 Frequencies --   1420.0213              1429.3430              1443.4748
 Red. masses --      1.2325                 1.2465                 1.4134
 Frc consts  --      1.4643                 1.5005                 1.7351
 IR Inten    --     37.2288                45.3137                31.7046

                     76                     77                     78
                      A                      A                      A
 Frequencies --   1449.3479              1457.7141              1469.6101
 Red. masses --      1.4477                 1.2492                 1.2452
 Frc consts  --      1.7918                 1.5640                 1.5845
 IR Inten    --     16.1097                84.6270                90.8990

                     79                     80                     81
                      A                      A                      A
 Frequencies --   1473.3631              1476.7332              1485.7694
 Red. masses --      1.2280                 1.2870                 1.1249
 Frc consts  --      1.5707                 1.6536                 1.4630
 IR Inten    --     90.2110               155.4085                14.1893

                     82                     83                     84
                      A                      A                      A
 Frequencies --   1497.9985              1504.5963              1509.5304
 Red. masses --      1.1399                 1.1332                 1.2653
 Frc consts  --      1.5070                 1.5114                 1.6987
 IR Inten    --     11.4065                 6.5891                23.3743

                     85                     86                     87
                      A                      A                      A
 Frequencies --   1514.0353              1519.0581              1528.2021
 Red. masses --      1.3266                 2.3113                 1.7183
 Frc consts  --      1.7916                 3.1424                 2.3644
 IR Inten    --      5.4945                37.7127                59.1470

                     88                     89                     90
                      A                      A                      A
 Frequencies --   1529.9862              1727.4826              1746.9832
 Red. masses --      1.4721                13.2027                12.5816
 Frc consts  --      2.0304                23.2136                22.6238
 IR Inten    --     40.0028                 1.4098               464.8693

                     91                     92                     93
                      A                      A                      A
 Frequencies --   2990.6267              3009.6875              3046.9546
 Red. masses --      1.0705                 1.0700                 1.0617
 Frc consts  --      5.6413                 5.7103                 5.8072
 IR Inten    --     48.0818                36.0820                24.2229

                     94                     95                     96
                      A                      A                      A
 Frequencies --   3071.6905              3086.1249              3087.7898
 Red. masses --      1.0661                 1.0621                 1.0618
 Frc consts  --      5.9263                 5.9599                 5.9645
 IR Inten    --     10.0500                 9.3596                12.5336

                     97                     98                     99
                      A                      A                      A
 Frequencies --   3110.5064              3112.8074              3125.6288
 Red. masses --      1.0982                 1.1080                 1.0992
 Frc consts  --      6.2603                 6.3253                 6.3271
 IR Inten    --     13.4971                14.7500                13.4509

                    100                    101                    102
                      A                      A                      A
 Frequencies --   3151.8019              3155.8593              3157.7005
 Red. masses --      1.1102                 1.1110                 1.1048
 Frc consts  --      6.4980                 6.5190                 6.4903
 IR Inten    --      8.8160                 8.0895                 2.1818

                    103                    104                    105
                      A                      A                      A
 Frequencies --   3604.8322              3634.5435              3647.4947
 Red. masses --      1.0665                 1.0660                 1.0657
 Frc consts  --      8.1654                 8.2968                 8.3538
 IR Inten    --    189.3635               206.1394               782.3266

                    106                    107                    108
                      A                      A                      A
 Frequencies --   3657.9434              3667.3025              3755.5492
 Red. masses --      1.0651                 1.0653                 1.0648
 Frc consts  --      8.3965                 8.4411                 8.8488
 IR Inten    --    128.2447               112.2971                65.5336

                           ! Non-Optimized Parameters !
 Normal termination of Gaussian 16 at Tue Aug  9 19:09:13 2022.
