 Gaussian 16, Revision B.01,
 Gaussian 16:  ES64L-G16RevB.01 20-Dec-2017

 --------------------------------------------------------------
 #T wB97XD//def2svpp Volume=tight Geom=AllCheckpoint Guess=Read
 --------------------------------------------------------------
 Structure from the checkpoint file:  "17.chk"
 -------
 Monomer
 -------
 Charge =  0 Multiplicity = 1

                         Standard orientation:
 ---------------------------------------------------------------------
 Center     Atomic      Atomic             Coordinates (Angstroms)
 Number     Number       Type             X           Y           Z
 ---------------------------------------------------------------------
      1          6           0        0.966853   -0.783196   -1.262562
      2          6           0        0.551528   -0.004956   -0.000002
      3          6           0        0.966804   -0.782879    1.262773
      4          6           0        1.215651    1.373934   -0.000163
      5          6           0       -0.975374    0.189050   -0.000021
      6          8           0       -1.712009   -0.941234   -0.000011
      7          8           0       -1.522113    1.252902   -0.000025
      8          1           0        2.065930   -0.878236   -1.298518
      9          1           0        0.639116   -0.260573   -2.177465
     10          1           0        0.552250   -1.807282   -1.290652
     11          1           0        2.065874   -0.878001    1.298746
     12          1           0        0.552094   -1.806912    1.291150
     13          1           0        0.639116   -0.259966    2.177527
     14          1           0        2.314102    1.263707   -0.000107
     15          1           0        0.920180    1.955329    0.887907
     16          1           0        0.920250    1.955090   -0.888416
     17          1           0       -1.148707   -1.728218   -0.000029
 ---------------------------------------------------------------------

 SCF Done:  E(RwB97XD) =  -346.635419186     A.U. after    1 cycles

 The electronic state is 1-A.
 Alpha  occ. eigenvalues --  -19.30097 -19.23795 -10.42512 -10.33520 -10.30861
 Alpha  occ. eigenvalues --  -10.30860 -10.28918  -1.19658  -1.10999  -0.93048
 Alpha  occ. eigenvalues --   -0.79998  -0.78801  -0.73327  -0.69310  -0.59795
 Alpha  occ. eigenvalues --   -0.56161  -0.55618  -0.52766  -0.52369  -0.50571
 Alpha  occ. eigenvalues --   -0.48803  -0.48386  -0.46480  -0.44214  -0.43270
 Alpha  occ. eigenvalues --   -0.43154  -0.40353  -0.35239
 Alpha virt. eigenvalues --    0.08942   0.09813   0.14849   0.17016   0.18192
 Alpha virt. eigenvalues --    0.19220   0.19535   0.22205   0.23276   0.23623
 Alpha virt. eigenvalues --    0.25826   0.25978   0.27703   0.30273   0.30938

 Mulliken charges:
               1
     1  C   -0.279974
     2  C   -0.384278
     3  C   -0.279956
     4  C   -0.247398
     5  C    0.292139
     6  O   -0.369536
     7  O   -0.207017
     8  H    0.132162
     9  H    0.142293
    10  H    0.105523
    11  H    0.132160
    12  H    0.105523
    13  H    0.142291
    14  H    0.112237
    15  H    0.133000
    16  H    0.132993
    17  H    0.337837
 Sum of Mulliken charges =  -0.00000

 Dipole moment (field-independent basis, Debye):
    X=              3.3176    Y=             -2.7956    Z=              0.0000  Tot=              4.3384
 Evaluate density.
 Using the total density.
 Monte-Carlo method of calculating molar volume:
 based on  0.001 e/bohr**3 density envelope.
 Number of points per bohr**3 =  100 CutOff= 1.00D-04
 Using the SCF density.
 There are      1735 points.  Will hold      1735 in memory.
 LenV=  1048337289 MDV=  1048576000.
 Box volume = 5224.870 fraction occupied=0.172
 Integrated density= 1.5873297172042055D+02 error= 1.0273297172042055D+02

 Normal termination of Gaussian 16 at Fri Sep 23 14:19:53 2022.
