 Gaussian 16, Revision B.01,
 Gaussian 16:  ES64L-G16RevB.01 20-Dec-2017

 --------------------------------------------------------------
 #T wB97XD//def2svpp Volume=tight Geom=AllCheckpoint Guess=Read
 --------------------------------------------------------------
 Structure from the checkpoint file:  "12.chk"
 -----
 Dimer
 -----
 Charge =  0 Multiplicity = 1

                         Standard orientation:
 ---------------------------------------------------------------------
 Center     Atomic      Atomic             Coordinates (Angstroms)
 Number     Number       Type             X           Y           Z
 ---------------------------------------------------------------------
      1          6           0        1.963188    0.098914    0.000002
      2          6           0        0.691512   -0.736137   -0.000002
      3          6           0       -0.564691    0.101466   -0.000000
      4          8           0       -1.671679   -0.660625    0.000002
      5          8           0       -0.611100    1.302349   -0.000001
      6          1           0        2.852085   -0.553146    0.000007
      7          1           0        2.008617    0.749820    0.888091
      8          1           0        2.008625    0.749816   -0.888089
      9          1           0        0.644011   -1.404285    0.878388
     10          1           0        0.644012   -1.404277   -0.878399
     11          1           0       -2.435176   -0.057172    0.000002
 ---------------------------------------------------------------------

 SCF Done:  E(RwB97XD) =  -268.101685382     A.U. after    1 cycles

 The electronic state is 1-A.
 Alpha  occ. eigenvalues --  -19.30235 -19.24611 -10.43042 -10.31072 -10.28891
 Alpha  occ. eigenvalues --   -1.20475  -1.10805  -0.88248  -0.76759  -0.67788
 Alpha  occ. eigenvalues --   -0.58979  -0.57436  -0.57041  -0.50848  -0.49799
 Alpha  occ. eigenvalues --   -0.46801  -0.45138  -0.43546  -0.40920  -0.36419
 Alpha virt. eigenvalues --    0.08811   0.13766   0.14898   0.19390   0.19878
 Alpha virt. eigenvalues --    0.21582   0.24636   0.29645   0.31140   0.35821
 Alpha virt. eigenvalues --    0.40276   0.50359   0.53972   0.54569   0.58593

 Mulliken charges:
               1
     1  C   -0.316684
     2  C   -0.274616
     3  C    0.189167
     4  O   -0.371444
     5  O   -0.240842
     6  H    0.123683
     7  H    0.132949
     8  H    0.132948
     9  H    0.144338
    10  H    0.144338
    11  H    0.336163
 Sum of Mulliken charges =  -0.00000

 Dipole moment (field-independent basis, Debye):
    X=             -0.1366    Y=             -1.4874    Z=             -0.0000  Tot=              1.4937
 Evaluate density.
 Using the total density.
 Monte-Carlo method of calculating molar volume:
 based on  0.001 e/bohr**3 density envelope.
 Number of points per bohr**3 =  100 CutOff= 1.00D-04
 Using the SCF density.
 There are      1541 points.  Will hold      1541 in memory.
 LenV=  1048428538 MDV=  1048576000.
 Box volume = 3665.981 fraction occupied=0.178
 Integrated density= 4.1553072719557044D+01 error= 1.5530727195570435D+00

 Normal termination of Gaussian 16 at Fri Feb  3 12:53:18 2023.
