 Gaussian 16, Revision B.01,
 Gaussian 16:  ES64L-G16RevB.01 20-Dec-2017

 ----------------------------------------------------------------------
 #T wB97XD/def2svpp opt=tight freq int(grid=ultrafine) scf=(verytight,q
 c)
 ----------------------------------------------------------------------
 --------------
 Comment gs min
 --------------
 Symbolic Z-matrix:
 Charge =  0 Multiplicity = 1

 SCF Done:  E(RwB97XD) =  -422.925699012     a.u. after    7 cycles
 SCF Done:  E(RwB97XD) =  -422.927955190     a.u. after   11 cycles
 SCF Done:  E(RwB97XD) =  -422.928886346     a.u. after   11 cycles
 SCF Done:  E(RwB97XD) =  -422.929867189     a.u. after    9 cycles
 SCF Done:  E(RwB97XD) =  -422.929871566     a.u. after    7 cycles
 SCF Done:  E(RwB97XD) =  -422.929871656     a.u. after    7 cycles
 SCF Done:  E(RwB97XD) =  -422.929977096     a.u. after    5 cycles
 SCF Done:  E(RwB97XD) =  -422.929989778     a.u. after    4 cycles
 SCF Done:  E(RwB97XD) =  -422.929991425     a.u. after    3 cycles
 SCF Done:  E(RwB97XD) =  -422.929991631     a.u. after    2 cycles
 SCF Done:  E(RwB97XD) =  -422.929991695     a.u. after    2 cycles
 SCF Done:  E(RwB97XD) =  -422.929991708     a.u. after    2 cycles
 SCF Done:  E(RwB97XD) =  -422.929991709     a.u. after    2 cycles
 SCF Done:  E(RwB97XD) =  -422.929991705     a.u. after    2 cycles
 SCF Done:  E(RwB97XD) =  -422.929991710     a.u. after    2 cycles
 SCF Done:  E(RwB97XD) =  -422.929991709     a.u. after    2 cycles
 SCF Done:  E(RwB97XD) =  -422.929991710     a.u. after    2 cycles
 SCF Done:  E(RwB97XD) =  -422.929991710     a.u. after    2 cycles
 SCF Done:  E(RwB97XD) =  -422.929991709     a.u. after    2 cycles
 Optimization completed.
    -- Stationary point found.

 1\1\GINC-C242\FOpt\RwB97XD\def2SVPP\C5H12O3\PETERCHAO1\04-Aug-2022\0\\
 #T wB97XD/def2svpp opt=tight freq int(grid=ultrafine) scf=(verytight,q
 c)\\Comment gs min\\0,1\C,0.9197445424,-0.0357659099,-0.0084354362\C,2
 .4525035592,-0.053767631,0.0094581172\C,2.965857004,0.6100243481,1.303
 7167846\O,2.5065324553,1.9188233911,1.4824792071\C,2.9718342955,-1.500
 8936753,-0.0323546851\O,2.5687579532,-2.2201758364,-1.1706985025\C,3.0
 13778264,0.6924269021,-1.2144661359\O,2.6275670524,2.0555435343,-1.275
 7017123\H,0.5100058122,-0.6762365013,0.7939152552\H,0.5161987555,-0.38

 Normal termination of Gaussian 16 at Thu Aug  4 16:22:24 2022.

 ---------------------------------------------------------------------
 #T Geom=AllCheck Guess=TCheck SCRF=Check GenChk RwB97XD/def2SVPP Freq
 ---------------------------------------------------------------------
 Structure from the checkpoint file:  "/scratch/user/peterchao1/peterchao1/6097805_1659647584000000877367958/Gau-7176.chk"
 --------------
 Comment gs min
 --------------
 Charge =  0 Multiplicity = 1

                         Standard orientation:
 ---------------------------------------------------------------------
 Center     Atomic      Atomic             Coordinates (Angstroms)
 Number     Number       Type             X           Y           Z
 ---------------------------------------------------------------------
      1          6           0       -0.196727   -0.196575    1.551200
      2          6           0       -0.187392   -0.202191    0.018269
      3          6           0        0.842705   -1.230529   -0.492298
      4          8           0        2.138050   -1.011631   -0.012655
      5          6           0       -1.572500   -0.592687   -0.524514
      6          8           0       -2.606977    0.271485   -0.126108
      7          6           0        0.162757    1.195799   -0.522883
      8          8           0        1.438539    1.660697   -0.113927
      9          1           0       -0.571088   -1.159087    1.945252
     10          1           0       -0.831437    0.613999    1.954990
     11          1           0        0.823421   -0.070895    1.949015
     12          1           0        0.817306   -1.231518   -1.605011
     13          1           0        0.547757   -2.243670   -0.163710
     14          1           0        2.331635   -0.065686   -0.138047
     15          1           0       -1.791552   -1.641502   -0.233096
     16          1           0       -1.562423   -0.560419   -1.627670
     17          1           0       -2.779741    0.140906    0.815290
     18          1           0       -0.630151    1.913162   -0.241473
     19          1           0        0.200421    1.163522   -1.624986
     20          1           0        1.395905    1.933879    0.812327
 ---------------------------------------------------------------------

 SCF Done:  E(RwB97XD) =  -422.929991709     a.u. after    1 cycles

 The electronic state is 1-A.
 Alpha  occ. eigenvalues --  -19.27339 -19.26002 -19.23204 -10.34597 -10.34485
 Alpha  occ. eigenvalues --  -10.33413 -10.30997 -10.29617  -1.13477  -1.12321
 Alpha  occ. eigenvalues --   -1.09814  -0.90998  -0.79386  -0.77493  -0.75363
 Alpha  occ. eigenvalues --   -0.66212  -0.62978  -0.60882  -0.58362  -0.55387
 Alpha  occ. eigenvalues --   -0.54269  -0.53384  -0.51548  -0.49003  -0.47135
 Alpha  occ. eigenvalues --   -0.46567  -0.45401  -0.44138  -0.41716  -0.40911
 Alpha  occ. eigenvalues --   -0.36789  -0.35289  -0.34021
 Alpha virt. eigenvalues --    0.11146   0.13246   0.14611   0.16880   0.18647
 Alpha virt. eigenvalues --    0.20042   0.20203   0.20591   0.22163   0.24119
 Alpha virt. eigenvalues --    0.24692   0.25999   0.26717   0.27297   0.29788

 Mulliken charges:
               1
     1  C   -0.334086
     2  C   -0.339980
     3  C    0.093318
     4  O   -0.501345
     5  C    0.059326
     6  O   -0.483291
     7  C    0.051749
     8  O   -0.499681
     9  H    0.123185
    10  H    0.112039
    11  H    0.131409
    12  H    0.085076
    13  H    0.095589
    14  H    0.324592
    15  H    0.098494
    16  H    0.106056
    17  H    0.321602
    18  H    0.116996
    19  H    0.108620
    20  H    0.330330
 Sum of Mulliken charges =  -0.00000

 Dipole moment (field-independent basis, Debye):
    X=             -1.6057    Y=              0.6007    Z=              1.6648  Tot=              2.3897
  Exact polarizability:  62.229   0.363  60.685  -0.044   1.327  61.767
 Approx polarizability:  65.675   0.013  64.500   0.274   0.877  66.300
   1 Symmetry operations used in ECPInt.
 ECPInt:  NShTT=    2628 NPrTT=   10580 LenC2=    2607 LenP2D=    8440.
 LDataN:  DoStor=T MaxTD1= 6 Len=  172
 Calling FoFJK, ICntrl=    100127 FMM=F ISym2X=0 I1Cent= 0 IOpClX= 0 NMat=1 NMatS=1 NMatT=0.
 Full mass-weighted force constant matrix:
 Low frequencies ---   -5.7327   -0.0002    0.0009    0.0011    7.1902   10.3359
 Low frequencies ---  112.1598  133.8181  176.1952
 Diagonal vibrational polarizability:

                      1                      2                      3
                      A                      A                      A
 Frequencies --    112.1587               133.8154               176.1917
 Red. masses --      2.6217                 2.8960                 3.1695
 Frc consts  --      0.0194                 0.0306                 0.0580
 IR Inten    --      4.6372                 8.2871                 2.0754

                      4                      5                      6
                      A                      A                      A
 Frequencies --    205.7151               239.0194               266.7908
 Red. masses --      4.1092                 1.1306                 3.7618
 Frc consts  --      0.1025                 0.0381                 0.1578
 IR Inten    --      4.5305                19.7604                 9.9335

                      7                      8                      9
                      A                      A                      A
 Frequencies --    316.3275               346.3387               354.1083
 Red. masses --      2.9217                 1.3502                 1.1690
 Frc consts  --      0.1723                 0.0954                 0.0864
 IR Inten    --      6.3524                94.0372               106.9869

                     10                     11                     12
                      A                      A                      A
 Frequencies --    368.1130               414.0812               432.8799
 Red. masses --      1.6819                 3.5506                 2.2701
 Frc consts  --      0.1343                 0.3587                 0.2506
 IR Inten    --     83.1972                15.7583                13.0537

                     13                     14                     15
                      A                      A                      A
 Frequencies --    480.3663               629.2081               668.6947
 Red. masses --      2.8404                 1.6534                 1.6566
 Frc consts  --      0.3862                 0.3857                 0.4364
 IR Inten    --     13.6457                53.4372                91.2548

                     16                     17                     18
                      A                      A                      A
 Frequencies --    786.5735               906.4068               924.5963
 Red. masses --      3.2157                 2.0037                 1.5579
 Frc consts  --      1.1722                 0.9699                 0.7847
 IR Inten    --     14.1662                 3.8198                15.6058

                     19                     20                     21
                      A                      A                      A
 Frequencies --    948.3553              1002.8777              1021.6477
 Red. masses --      1.3159                 1.5428                 1.6266
 Frc consts  --      0.6973                 0.9142                 1.0003
 IR Inten    --      8.0777                 1.7494                 6.8628

                     22                     23                     24
                      A                      A                      A
 Frequencies --   1108.9222              1120.4864              1152.4142
 Red. masses --      5.7074                 4.3147                 1.4296
 Frc consts  --      4.1351                 3.1916                 1.1186
 IR Inten    --     34.6859               174.3660                47.9550

                     25                     26                     27
                      A                      A                      A
 Frequencies --   1171.5046              1194.9409              1221.3950
 Red. masses --      4.1686                 1.2789                 2.3537
 Frc consts  --      3.3707                 1.0759                 2.0688
 IR Inten    --     27.9595                85.0286                10.0657

                     28                     29                     30
                      A                      A                      A
 Frequencies --   1247.8289              1299.1078              1343.2934
 Red. masses --      1.1682                 2.2139                 1.6582
 Frc consts  --      1.0717                 2.2014                 1.7629
 IR Inten    --      0.1179                 3.5559                15.5887

                     31                     32                     33
                      A                      A                      A
 Frequencies --   1385.2636              1398.9699              1413.2554
 Red. masses --      1.2436                 1.3627                 1.2855
 Frc consts  --      1.4061                 1.5713                 1.5127
 IR Inten    --      6.8253                19.0968                 2.5350

                     34                     35                     36
                      A                      A                      A
 Frequencies --   1414.6770              1433.0898              1454.2831
 Red. masses --      1.2283                 1.3684                 1.3262
 Frc consts  --      1.4483                 1.6558                 1.6525
 IR Inten    --     25.6913                27.9890                17.2494

                     37                     38                     39
                      A                      A                      A
 Frequencies --   1485.7131              1495.1171              1499.9768
 Red. masses --      1.1961                 1.0835                 1.0708
 Frc consts  --      1.5556                 1.4271                 1.4195
 IR Inten    --     47.5919                20.9222                 0.9261

                     40                     41                     42
                      A                      A                      A
 Frequencies --   1503.1126              1514.5130              1522.6265
 Red. masses --      1.0920                 1.0712                 1.0881
 Frc consts  --      1.4537                 1.4476                 1.4863
 IR Inten    --     29.4859                15.5903                 1.8015

                     43                     44                     45
                      A                      A                      A
 Frequencies --   2965.8948              2996.0853              3022.8902
 Red. masses --      1.0708                 1.0701                 1.0396
 Frc consts  --      5.5497                 5.6597                 5.5971
 IR Inten    --     69.6445                55.4186                20.3492

                     46                     47                     48
                      A                      A                      A
 Frequencies --   3045.9986              3074.6476              3097.3630
 Red. masses --      1.0623                 1.0958                 1.0991
 Frc consts  --      5.8070                 6.1033                 6.2126
 IR Inten    --     30.7867                38.5155                25.8726

                     49                     50                     51
                      A                      A                      A
 Frequencies --   3105.8733              3113.9527              3137.5229
 Red. masses --      1.1046                 1.1082                 1.1014
 Frc consts  --      6.2780                 6.3314                 6.3883
 IR Inten    --     21.6169                29.3068                 7.9170

                     52                     53                     54
                      A                      A                      A
 Frequencies --   3650.9888              3779.9066              3783.6168
 Red. masses --      1.0657                 1.0661                 1.0660
 Frc consts  --      8.3700                 8.9746                 8.9917
 IR Inten    --    157.2958                35.8078                34.7547

 Optimization completed.
    -- Stationary point found.

 1\1\GINC-C242\Freq\RwB97XD\def2SVPP\C5H12O3\PETERCHAO1\04-Aug-2022\0\\
 #T Geom=AllCheck Guess=TCheck SCRF=Check GenChk RwB97XD/def2SVPP Freq\
 \Comment gs min\\0,1\C,0.9197445424,-0.0357659099,-0.0084354362\C,2.45
 25035592,-0.053767631,0.0094581172\C,2.965857004,0.6100243481,1.303716
 7846\O,2.5065324553,1.9188233911,1.4824792071\C,2.9718342955,-1.500893
 6753,-0.0323546851\O,2.5687579532,-2.2201758364,-1.1706985025\C,3.0137
 78264,0.6924269021,-1.2144661359\O,2.6275670524,2.0555435343,-1.275701
 7123\H,0.5100058122,-0.6762365013,0.7939152552\H,0.5161987555,-0.38998

 Normal termination of Gaussian 16 at Thu Aug  4 16:24:14 2022.
