 Gaussian 16, Revision B.01,
 Gaussian 16:  ES64L-G16RevB.01 20-Dec-2017

 ----------------------------------------------------------------------
 #T wB97XD/def2svpp opt=tight freq int(grid=ultrafine) scf=(verytight,q
 c)
 ----------------------------------------------------------------------
 -----
 dimer
 -----
 Symbolic Z-matrix:
 Charge =  0 Multiplicity = 1

 SCF Done:  E(RwB97XD) =  -545.359705298     a.u. after    7 cycles
 SCF Done:  E(RwB97XD) =  -545.363370861     a.u. after   11 cycles
 SCF Done:  E(RwB97XD) =  -545.358280485     a.u. after   13 cycles
 SCF Done:  E(RwB97XD) =  -545.363027942     a.u. after    9 cycles
 SCF Done:  E(RwB97XD) =  -545.363910422     a.u. after    3 cycles
 SCF Done:  E(RwB97XD) =  -545.363834922     a.u. after    9 cycles
 SCF Done:  E(RwB97XD) =  -545.364328721     a.u. after   11 cycles
 SCF Done:  E(RwB97XD) =  -545.364706338     a.u. after    9 cycles
 SCF Done:  E(RwB97XD) =  -545.365109902     a.u. after   11 cycles
 SCF Done:  E(RwB97XD) =  -545.365501272     a.u. after    7 cycles
 SCF Done:  E(RwB97XD) =  -545.365879238     a.u. after    2 cycles
 SCF Done:  E(RwB97XD) =  -545.365879269     a.u. after    2 cycles
 SCF Done:  E(RwB97XD) =  -545.365879272     a.u. after    2 cycles
 SCF Done:  E(RwB97XD) =  -545.365879282     a.u. after    2 cycles
 SCF Done:  E(RwB97XD) =  -545.365879288     a.u. after    2 cycles
 SCF Done:  E(RwB97XD) =  -545.365879292     a.u. after    2 cycles
 SCF Done:  E(RwB97XD) =  -545.365879293     a.u. after    2 cycles
 SCF Done:  E(RwB97XD) =  -545.365879292     a.u. after    2 cycles
 SCF Done:  E(RwB97XD) =  -545.365879294     a.u. after    2 cycles
 Optimization completed.
    -- Stationary point found.
 Normal termination of Gaussian 16 at Tue Aug  9 17:30:15 2022.

 ---------------------------------------------------------------------
 #T Geom=AllCheck Guess=TCheck SCRF=Check GenChk RwB97XD/def2SVPP Freq
 ---------------------------------------------------------------------
 Structure from the checkpoint file:  "/scratch/user/peterchao1/peterchao1/6113314_1660079070000000889864153/Gau-158894.chk"
 -----
 dimer
 -----
 Charge =  0 Multiplicity = 1

                         Standard orientation:
 ---------------------------------------------------------------------
 Center     Atomic      Atomic             Coordinates (Angstroms)
 Number     Number       Type             X           Y           Z
 ---------------------------------------------------------------------
      1          6           0       -3.224187   -0.767112   -1.023240
      2          6           0       -2.658170    0.277710   -0.051365
      3          6           0       -1.623658    1.150085   -0.775481
      4          6           0       -3.794004    1.158296    0.485557
      5          6           0       -2.014680   -0.431978    1.154628
      6          8           0       -1.048634   -1.410273    0.819547
      7          1           0       -3.777578   -0.276833   -1.842969
      8          1           0       -3.925683   -1.455676   -0.514650
      9          1           0       -2.418474   -1.361668   -1.489865
     10          1           0       -2.078216    1.641435   -1.654273
     11          1           0       -0.762811    0.556538   -1.126024
     12          1           0       -1.241908    1.943855   -0.107962
     13          1           0       -4.583334    0.553889    0.968487
     14          1           0       -4.262291    1.731354   -0.333750
     15          1           0       -3.418394    1.884424    1.229328
     16          1           0       -2.806568   -0.894363    1.777493
     17          1           0       -1.488149    0.303264    1.785507
     18          1           0       -1.490985   -2.179607    0.435497
     19          6           0        1.763079    0.589215    1.243998
     20          6           0        2.702228    0.231790    0.084428
     21          6           0        2.664282    1.345251   -0.969101
     22          6           0        4.131116    0.058137    0.612577
     23          6           0        2.262544   -1.102631   -0.552471
     24          8           0        0.963169   -1.103628   -1.070858
     25          1           0        2.109518    1.500749    1.763609
     26          1           0        1.710396   -0.228277    1.986194
     27          1           0        0.740115    0.782453    0.879908
     28          1           0        2.955067    2.316110   -0.528055
     29          1           0        1.651995    1.447706   -1.395062
     30          1           0        3.360081    1.128404   -1.799936
     31          1           0        4.825415   -0.227513   -0.198705
     32          1           0        4.179524   -0.724701    1.391511
     33          1           0        4.503673    0.998179    1.057427
     34          1           0        2.389840   -1.911963    0.199442
     35          1           0        2.940376   -1.335242   -1.393981
     36          1           0        0.320812   -1.133899   -0.335853
 ---------------------------------------------------------------------

 SCF Done:  E(RwB97XD) =  -545.365879294     a.u. after    1 cycles

 The electronic state is 1-A.
 Alpha  occ. eigenvalues --  -19.27852 -19.22078 -10.34706 -10.31609 -10.31325
 Alpha  occ. eigenvalues --  -10.29219 -10.29044 -10.28893 -10.27683 -10.27333
 Alpha  occ. eigenvalues --  -10.27180 -10.26606  -1.13690  -1.08600  -0.91911
 Alpha  occ. eigenvalues --   -0.89853  -0.78797  -0.77658  -0.77401  -0.76629
 Alpha  occ. eigenvalues --   -0.76140  -0.74358  -0.64886  -0.62190  -0.60693
 Alpha  occ. eigenvalues --   -0.58126  -0.55834  -0.55551  -0.53893  -0.53061
 Alpha  occ. eigenvalues --   -0.52485  -0.50943  -0.50133  -0.48626  -0.47687
 Alpha  occ. eigenvalues --   -0.46901  -0.45888  -0.45498  -0.45085  -0.44758
 Alpha  occ. eigenvalues --   -0.43567  -0.43414  -0.42623  -0.41549  -0.41109
 Alpha  occ. eigenvalues --   -0.39898  -0.39535  -0.37876  -0.36578  -0.32717
 Alpha virt. eigenvalues --    0.11135   0.13876   0.13974   0.16875   0.17298
 Alpha virt. eigenvalues --    0.18303   0.18420   0.18972   0.19096   0.19772
 Alpha virt. eigenvalues --    0.20374   0.21667   0.21802   0.22492   0.22828

 Mulliken charges:
               1
     1  C   -0.317042
     2  C   -0.274898
     3  C   -0.315566
     4  C   -0.278033
     5  C    0.058016
     6  O   -0.494345
     7  H    0.126062
     8  H    0.110985
     9  H    0.128391
    10  H    0.115565
    11  H    0.156852
    12  H    0.120583
    13  H    0.114132
    14  H    0.121380
    15  H    0.117840
    16  H    0.097474
    17  H    0.119193
    18  H    0.340291
    19  C   -0.316064
    20  C   -0.266006
    21  C   -0.276849
    22  C   -0.274319
    23  C    0.065063
    24  O   -0.518386
    25  H    0.110446
    26  H    0.113666
    27  H    0.121837
    28  H    0.105783
    29  H    0.136707
    30  H    0.106174
    31  H    0.112294
    32  H    0.109981
    33  H    0.112353
    34  H    0.078444
    35  H    0.087234
    36  H    0.344762
 Sum of Mulliken charges =  -0.00000

 Dipole moment (field-independent basis, Debye):
    X=             -2.3098    Y=             -0.3032    Z=              1.3717  Tot=              2.7035
  Exact polarizability: 132.868  -0.721 110.093  -0.729   0.013 108.375
 Approx polarizability: 122.974  -0.300 118.623  -0.753   0.708 118.204
   1 Symmetry operations used in ECPInt.
 ECPInt:  NShTT=    7260 NPrTT=   29148 LenC2=    7044 LenP2D=   20578.
 LDataN:  DoStor=T MaxTD1= 6 Len=  172
 Calling FoFJK, ICntrl=    100127 FMM=F ISym2X=0 I1Cent= 0 IOpClX= 0 NMat=1 NMatS=1 NMatT=0.
 Full mass-weighted force constant matrix:
 Low frequencies ---   -4.0143   -0.0009   -0.0008    0.0008    2.2773    9.6414
 Low frequencies ---   28.3793   37.3690   53.7723
 Diagonal vibrational polarizability:

                      1                      2                      3
                      A                      A                      A
 Frequencies --     28.3361                37.1927                53.7479
 Red. masses --      3.1478                 2.9989                 2.8734
 Frc consts  --      0.0015                 0.0024                 0.0049
 IR Inten    --      0.6012                 1.4009                 0.5297

                      4                      5                      6
                      A                      A                      A
 Frequencies --     74.0252                98.7227               123.3292
 Red. masses --      3.9313                 4.6475                 2.6209
 Frc consts  --      0.0127                 0.0267                 0.0235
 IR Inten    --      0.7252                 1.2305                 4.3797

                      7                      8                      9
                      A                      A                      A
 Frequencies --    162.7675               200.7971               229.9029
 Red. masses --      2.1863                 1.9916                 1.4898
 Frc consts  --      0.0341                 0.0473                 0.0464
 IR Inten    --      2.1527                 0.4440                 1.7311

                     10                     11                     12
                      A                      A                      A
 Frequencies --    244.6158               253.2543               268.2016
 Red. masses --      1.2654                 1.7040                 1.8773
 Frc consts  --      0.0446                 0.0644                 0.0796
 IR Inten    --      0.8710                 2.8255                 1.8765

                     13                     14                     15
                      A                      A                      A
 Frequencies --    277.7862               278.7657               299.8518
 Red. masses --      1.1432                 1.1161                 1.4073
 Frc consts  --      0.0520                 0.0511                 0.0745
 IR Inten    --      0.0629                 0.6364                 6.1928

                     16                     17                     18
                      A                      A                      A
 Frequencies --    317.8690               343.6698               351.4802
 Red. masses --      1.0639                 2.0165                 2.0467
 Frc consts  --      0.0633                 0.1403                 0.1490
 IR Inten    --      2.7918                 2.7212                 0.3545

                     19                     20                     21
                      A                      A                      A
 Frequencies --    364.3219               368.3358               392.4681
 Red. masses --      2.4569                 2.6051                 1.2419
 Frc consts  --      0.1921                 0.2082                 0.1127
 IR Inten    --      2.9637                 1.4603               115.4427

                     22                     23                     24
                      A                      A                      A
 Frequencies --    417.4553               421.3986               429.4960
 Red. masses --      2.2584                 2.2231                 2.0019
 Frc consts  --      0.2319                 0.2326                 0.2176
 IR Inten    --      0.7555                 3.2222                 0.6210

                     25                     26                     27
                      A                      A                      A
 Frequencies --    435.0059               549.6311               554.4995
 Red. masses --      1.7601                 3.1041                 2.9884
 Frc consts  --      0.1962                 0.5525                 0.5414
 IR Inten    --     31.2054                 2.5372                10.5120

                     28                     29                     30
                      A                      A                      A
 Frequencies --    747.3350               764.4745               769.9250
 Red. masses --      1.1949                 3.4114                 2.4448
 Frc consts  --      0.3932                 1.1746                 0.8539
 IR Inten    --     50.4541                 3.7044                23.7524

                     31                     32                     33
                      A                      A                      A
 Frequencies --    926.3449               928.0962               936.2269
 Red. masses --      2.0193                 1.9328                 1.7147
 Frc consts  --      1.0209                 0.9809                 0.8855
 IR Inten    --      6.7210                 5.5547                10.4691

                     34                     35                     36
                      A                      A                      A
 Frequencies --    942.1756               960.6262               962.9771
 Red. masses --      1.7278                 1.5025                 1.4098
 Frc consts  --      0.9037                 0.8169                 0.7703
 IR Inten    --      6.2076                 2.5604                 2.4930

                     37                     38                     39
                      A                      A                      A
 Frequencies --    963.7288               966.5251               972.2053
 Red. masses --      1.3840                 1.3690                 1.2215
 Frc consts  --      0.7573                 0.7535                 0.6802
 IR Inten    --      1.3006                 1.7874                 0.8176

                     40                     41                     42
                      A                      A                      A
 Frequencies --    979.6333              1054.5467              1056.1264
 Red. masses --      1.2408                 1.4478                 1.4418
 Frc consts  --      0.7016                 0.9486                 0.9475
 IR Inten    --      0.4349                 2.5958                 2.4448

                     43                     44                     45
                      A                      A                      A
 Frequencies --   1074.0292              1077.8189              1126.6551
 Red. masses --      1.3805                 1.3962                 4.8905
 Frc consts  --      0.9383                 0.9557                 3.6575
 IR Inten    --     25.3132                 6.3415               156.9025

                     46                     47                     48
                      A                      A                      A
 Frequencies --   1163.7288              1197.0861              1229.2674
 Red. masses --      5.1696                 1.2450                 1.3517
 Frc consts  --      4.1249                 1.0512                 1.2034
 IR Inten    --    109.6274                21.8822                14.0702

                     49                     50                     51
                      A                      A                      A
 Frequencies --   1264.5740              1266.4197              1305.4165
 Red. masses --      2.4423                 2.3984                 2.7829
 Frc consts  --      2.3011                 2.2664                 2.7941
 IR Inten    --      1.6801                 6.9275                 1.6555

                     52                     53                     54
                      A                      A                      A
 Frequencies --   1307.8556              1320.4727              1332.7309
 Red. masses --      2.7764                 1.9772                 1.5737
 Frc consts  --      2.7980                 2.0312                 1.6469
 IR Inten    --      1.2290                10.0108                14.1747

                     55                     56                     57
                      A                      A                      A
 Frequencies --   1402.0717              1404.1279              1408.2758
 Red. masses --      1.2313                 1.2625                 1.3534
 Frc consts  --      1.4262                 1.4666                 1.5814
 IR Inten    --      4.4233                 7.4991                12.9146

                     58                     59                     60
                      A                      A                      A
 Frequencies --   1412.3308              1415.9380              1417.8413
 Red. masses --      1.2962                 1.3096                 1.3208
 Frc consts  --      1.5233                 1.5470                 1.5644
 IR Inten    --     17.0444                 3.0414                 0.9715

                     61                     62                     63
                      A                      A                      A
 Frequencies --   1425.4012              1444.6257              1445.9065
 Red. masses --      1.2602                 1.2715                 1.2368
 Frc consts  --      1.5086                 1.5634                 1.5234
 IR Inten    --     22.8875                23.1950                40.6464

                     64                     65                     66
                      A                      A                      A
 Frequencies --   1466.7196              1473.3099              1479.7186
 Red. masses --      1.1660                 1.0461                 1.0523
 Frc consts  --      1.4778                 1.3378                 1.3575
 IR Inten    --     32.3587                 0.0449                 3.1619

                     67                     68                     69
                      A                      A                      A
 Frequencies --   1481.2558              1483.3382              1484.1158
 Red. masses --      1.0466                 1.0540                 1.0598
 Frc consts  --      1.3530                 1.3663                 1.3753
 IR Inten    --      0.2466                 1.5837                 0.8248

                     70                     71                     72
                      A                      A                      A
 Frequencies --   1490.1024              1493.6447              1496.1484
 Red. masses --      1.0540                 1.0741                 1.0758
 Frc consts  --      1.3789                 1.4119                 1.4188
 IR Inten    --      2.7254                 8.8118                 2.4905

                     73                     74                     75
                      A                      A                      A
 Frequencies --   1502.0078              1507.0640              1512.0787
 Red. masses --      1.0716                 1.0757                 1.0690
 Frc consts  --      1.4244                 1.4395                 1.4400
 IR Inten    --      5.4837                 1.4736                 8.4755

                     76                     77                     78
                      A                      A                      A
 Frequencies --   1513.2102              1517.5738              1526.3678
 Red. masses --      1.0655                 1.0784                 1.0711
 Frc consts  --      1.4375                 1.4633                 1.4702
 IR Inten    --     28.0135                14.2772                35.7848

                     79                     80                     81
                      A                      A                      A
 Frequencies --   2975.2011              3015.4105              3017.3537
 Red. masses --      1.0690                 1.0644                 1.0400
 Frc consts  --      5.5750                 5.7023                 5.5789
 IR Inten    --     78.2994                39.9705                30.1050

                     82                     83                     84
                      A                      A                      A
 Frequencies --   3018.4185              3022.7516              3024.0089
 Red. masses --      1.0372                 1.0393                 1.0380
 Frc consts  --      5.5679                 5.5949                 5.5928
 IR Inten    --     33.0616                37.5030                36.2623

                     85                     86                     87
                      A                      A                      A
 Frequencies --   3028.8032              3030.3901              3074.3272
 Red. masses --      1.0397                 1.0400                 1.0987
 Frc consts  --      5.6195                 5.6272                 6.1181
 IR Inten    --      7.9494                20.2115                43.5651

                     88                     89                     90
                      A                      A                      A
 Frequencies --   3106.3343              3107.5699              3109.6116
 Red. masses --      1.1036                 1.1050                 1.1043
 Frc consts  --      6.2745                 6.2874                 6.2915
 IR Inten    --     13.3789                 2.8940                21.6817

                     91                     92                     93
                      A                      A                      A
 Frequencies --   3110.2633              3110.7663              3110.8422
 Red. masses --      1.1035                 1.1042                 1.1046
 Frc consts  --      6.2896                 6.2955                 6.2980
 IR Inten    --      0.6030                 7.3736                33.3973

                     94                     95                     96
                      A                      A                      A
 Frequencies --   3114.4339              3115.2536              3120.6057
 Red. masses --      1.1037                 1.1021                 1.1046
 Frc consts  --      6.3074                 6.3015                 6.3376
 IR Inten    --     32.2587                81.3297                12.7681

                     97                     98                     99
                      A                      A                      A
 Frequencies --   3122.7701              3134.0939              3141.1771
 Red. masses --      1.1033                 1.1033                 1.1011
 Frc consts  --      6.3393                 6.3850                 6.4009
 IR Inten    --     29.5482                12.8163                16.7263

                    100                    101                    102
                      A                      A                      A
 Frequencies --   3145.4238              3591.1976              3777.1112
 Red. masses --      1.1024                 1.0677                 1.0660
 Frc consts  --      6.4259                 8.1131                 8.9602
 IR Inten    --      8.5204               564.2523                45.1478

                           ! Non-Optimized Parameters !
 Normal termination of Gaussian 16 at Tue Aug  9 17:37:14 2022.
