 Gaussian 16, Revision B.01,
 Gaussian 16:  ES64L-G16RevB.01 20-Dec-2017

 ----------------------------------------------------------------------
 #T wB97XD/def2svpp opt=tight freq int(grid=ultrafine) scf=(verytight,q
 c)
 ----------------------------------------------------------------------
 -------
 comment
 -------
 Symbolic Z-matrix:
 Charge =  1 Multiplicity = 2

 SCF Done:  E(UwB97XD) =  -437.298564505     a.u. after   28 cycles
 SCF Done:  E(UwB97XD) =  -437.308884152     a.u. after   14 cycles
 SCF Done:  E(UwB97XD) =  -437.296380196     a.u. after   25 cycles
 SCF Done:  E(UwB97XD) =  -437.312609782     a.u. after   12 cycles
 SCF Done:  E(UwB97XD) =  -437.313764061     a.u. after   11 cycles
 SCF Done:  E(UwB97XD) =  -437.313972129     a.u. after    7 cycles
 SCF Done:  E(UwB97XD) =  -437.314015251     a.u. after    6 cycles
 SCF Done:  E(UwB97XD) =  -437.314038173     a.u. after    5 cycles
 SCF Done:  E(UwB97XD) =  -437.314058211     a.u. after    4 cycles
 SCF Done:  E(UwB97XD) =  -437.314159886     a.u. after    9 cycles
 SCF Done:  E(UwB97XD) =  -437.314733108     a.u. after    3 cycles
 SCF Done:  E(UwB97XD) =  -437.314734365     a.u. after    3 cycles
 SCF Done:  E(UwB97XD) =  -437.314734841     a.u. after    3 cycles
 SCF Done:  E(UwB97XD) =  -437.314734961     a.u. after    3 cycles
 SCF Done:  E(UwB97XD) =  -437.314734988     a.u. after    2 cycles
 SCF Done:  E(UwB97XD) =  -437.314735001     a.u. after    2 cycles
 SCF Done:  E(UwB97XD) =  -437.314735004     a.u. after    2 cycles
 SCF Done:  E(UwB97XD) =  -437.314735004     a.u. after    2 cycles
 SCF Done:  E(UwB97XD) =  -437.314735004     a.u. after    2 cycles
 Optimization completed.
    -- Stationary point found.
 Normal termination of Gaussian 16 at Mon Jul 10 19:55:11 2023.

 ---------------------------------------------------------------------
 #T Geom=AllCheck Guess=TCheck SCRF=Check GenChk UwB97XD/def2SVPP Freq
 ---------------------------------------------------------------------
 Structure from the checkpoint file:  "37.chk"
 -------
 comment
 -------
 Charge =  1 Multiplicity = 2

                         Standard orientation:
 ---------------------------------------------------------------------
 Center     Atomic      Atomic             Coordinates (Angstroms)
 Number     Number       Type             X           Y           Z
 ---------------------------------------------------------------------
      1          6           0       -0.210532    1.713214   -0.454388
      2          6           0       -0.024951    0.398056    0.229992
      3          6           0       -0.302895    0.293096    1.694471
      4          6           0       -1.234292   -0.784022   -0.634974
      5          8           0       -2.446129   -0.338180   -0.429192
      6          7           0        1.271611   -0.321931   -0.128145
      7          8           0        2.130251    0.400165   -0.558842
      8          8           0        1.340171   -1.500780    0.101302
      9          1           0       -1.245242    2.064941   -0.319806
     10          1           0        0.046597    1.680981   -1.524119
     11          1           0        0.463681    2.447456    0.026680
     12          1           0       -1.262173    0.768582    1.952809
     13          1           0        0.492365    0.861931    2.219990
     14          1           0       -0.256318   -0.744007    2.064098
     15          1           0       -0.918349   -1.712263   -0.133394
     16          1           0       -0.897599   -0.610760   -1.667019
     17          1           0       -2.882557   -0.715043    0.361018
 ---------------------------------------------------------------------

 SCF Done:  E(UwB97XD) =  -437.314735004     a.u. after    1 cycles

 The electronic state is 2-A.
 Alpha  occ. eigenvalues --  -19.56484 -19.49119 -19.48168 -14.87839 -10.62543
 Alpha  occ. eigenvalues --  -10.61955 -10.50418 -10.49233  -1.53764  -1.43718
 Alpha  occ. eigenvalues --   -1.36451  -1.16166  -1.03253  -1.00504  -0.99461
 Alpha  occ. eigenvalues --   -0.89900  -0.84526  -0.83978  -0.82568  -0.80672
 Alpha  occ. eigenvalues --   -0.79331  -0.77292  -0.72412  -0.70913  -0.70212
 Alpha  occ. eigenvalues --   -0.68008  -0.67764  -0.66082  -0.59864  -0.59046
 Alpha  occ. eigenvalues --   -0.57716  -0.56962
 Alpha virt. eigenvalues --   -0.18210  -0.10599  -0.08309  -0.03396  -0.01363
 Alpha virt. eigenvalues --    0.01044   0.01547   0.02928   0.03824   0.05473
 Alpha virt. eigenvalues --    0.06938   0.07726   0.09757   0.11174   0.12859

  Beta  occ. eigenvalues --  -19.55832 -19.48840 -19.48199 -14.87843 -10.62306
  Beta  occ. eigenvalues --  -10.61467 -10.50419 -10.49223  -1.53551  -1.42228
  Beta  occ. eigenvalues --   -1.36160  -1.14734  -1.01988  -1.00104  -0.99008
  Beta  occ. eigenvalues --   -0.88848  -0.84223  -0.83178  -0.80711  -0.80018
  Beta  occ. eigenvalues --   -0.78919  -0.75262  -0.71718  -0.70014  -0.68105
  Beta  occ. eigenvalues --   -0.67446  -0.66894  -0.65818  -0.58760  -0.57661
  Beta  occ. eigenvalues --   -0.57146
  Beta virt. eigenvalues --   -0.33829  -0.17512  -0.08073  -0.06770  -0.03000
  Beta virt. eigenvalues --   -0.01059   0.01353   0.01926   0.03254   0.04049
  Beta virt. eigenvalues --    0.05912   0.07500   0.08031   0.10286   0.11587

 Mulliken charges and spin densities:
               1          2
     1  C   -0.239139   0.000433
     2  C   -0.295466   0.382494
     3  C   -0.283984  -0.007496
     4  C    0.017721   0.174471
     5  O   -0.255468   0.249307
     6  N    0.269244  -0.012447
     7  O   -0.134917   0.110011
     8  O   -0.184239  -0.010139
     9  H    0.191254   0.001786
    10  H    0.194421   0.002989
    11  H    0.222537   0.036595
    12  H    0.189442   0.002922
    13  H    0.230051   0.039231
    14  H    0.201267   0.005707
    15  H    0.244099   0.016339
    16  H    0.228770   0.016514
    17  H    0.404409  -0.008717
 Sum of Mulliken charges =   1.00000   1.00000

 Dipole moment (field-independent basis, Debye):
    X=             -5.9023    Y=              0.4351    Z=              1.6054  Tot=              6.1322
  Exact polarizability:  84.725   5.196  63.763  -1.252  -1.330  54.326
 Approx polarizability:  87.528  11.244  78.229  -4.207  -5.957  58.526
                          Isotropic Fermi Contact Couplings
        Atom                 a.u.       MegaHertz       Gauss      10(-4) cm-1
     1  C(13)             -0.00550      -6.18046      -2.20534      -2.06158
     2  C(13)              0.05248      58.99926      21.05240      19.68003
     3  C(13)             -0.01089     -12.24088      -4.36785      -4.08312
     4  C(13)              0.00534       6.00410       2.14241       2.00275
     5  O(17)              0.10455     -63.37515     -22.61383     -21.13968
     6  N(14)             -0.00304      -0.98228      -0.35050      -0.32765

                      1                      2                      3
                      A                      A                      A
 Frequencies --     40.0820                91.1393               141.2543
 Red. masses --      8.8188                 2.5627                 6.9707
 Frc consts  --      0.0083                 0.0125                 0.0819
 IR Inten    --      0.0416                10.7905                29.1011

                      4                      5                      6
                      A                      A                      A
 Frequencies --    195.7346               243.0713               258.8601
 Red. masses --      4.9106                 1.4602                 1.4975
 Frc consts  --      0.1108                 0.0508                 0.0591
 IR Inten    --     10.9786                 1.2626                 5.5684

                      7                      8                      9
                      A                      A                      A
 Frequencies --    272.5193               310.1578               331.4968
 Red. masses --      1.1500                 4.8311                 2.8189
 Frc consts  --      0.0503                 0.2738                 0.1825
 IR Inten    --      0.8744                 2.4611                 2.8130

                     10                     11                     12
                      A                      A                      A
 Frequencies --    370.1944               406.0927               500.9166
 Red. masses --      2.9490                 3.6535                 1.2014
 Frc consts  --      0.2381                 0.3550                 0.1776
 IR Inten    --      1.7350                 5.6363               129.0493

                     13                     14                     15
                      A                      A                      A
 Frequencies --    553.5071               604.5279               756.3236
 Red. masses --      3.5280                 3.4383                 5.9244
 Frc consts  --      0.6368                 0.7403                 1.9967
 IR Inten    --      5.3642                 8.9137                 8.1860

                     16                     17                     18
                      A                      A                      A
 Frequencies --    872.0137               919.3139               922.2304
 Red. masses --      8.8687                 1.3513                 1.1948
 Frc consts  --      3.9734                 0.6729                 0.5987
 IR Inten    --     52.0051                 8.1685                23.7551

                     19                     20                     21
                      A                      A                      A
 Frequencies --    936.1202               989.1976              1050.9574
 Red. masses --      2.1023                 1.3475                 1.5343
 Frc consts  --      1.0854                 0.7769                 0.9985
 IR Inten    --     11.2432                 0.9920                45.1424

                     22                     23                     24
                      A                      A                      A
 Frequencies --   1119.0146              1195.6246              1220.1837
 Red. masses --      1.0889                 1.4956                 1.6847
 Frc consts  --      0.8033                 1.2597                 1.4778
 IR Inten    --     89.7418                 2.6207                26.0761

                     25                     26                     27
                      A                      A                      A
 Frequencies --   1289.9869              1342.5887              1384.9508
 Red. masses --      3.3952                 2.0738                 1.2739
 Frc consts  --      3.3288                 2.2025                 1.4396
 IR Inten    --     16.3827               239.9886                51.4548

                     28                     29                     30
                      A                      A                      A
 Frequencies --   1389.0015              1398.1083              1430.8062
 Red. masses --      1.3611                 1.2898                 1.0513
 Frc consts  --      1.5472                 1.4855                 1.2681
 IR Inten    --      2.4774                34.5514                 5.3321

                     31                     32                     33
                      A                      A                      A
 Frequencies --   1452.3408              1458.1324              1466.9532
 Red. masses --      1.3950                 1.6044                 1.4529
 Frc consts  --      1.7336                 2.0098                 1.8421
 IR Inten    --      8.1263                48.5993                60.5837

                     34                     35                     36
                      A                      A                      A
 Frequencies --   1482.9921              1538.2755              1772.6289
 Red. masses --      1.1585                 1.4853                13.8207
 Frc consts  --      1.5012                 2.0707                25.5867
 IR Inten    --     41.2215                 2.8703               219.9136

                     37                     38                     39
                      A                      A                      A
 Frequencies --   3012.2681              3037.5924              3097.0192
 Red. masses --      1.0467                 1.0426                 1.0521
 Frc consts  --      5.5960                 5.6678                 5.9454
 IR Inten    --     34.3306                30.3980                16.9774

                     40                     41                     42
                      A                      A                      A
 Frequencies --   3120.2284              3138.5457              3175.9250
 Red. masses --      1.0888                 1.0951                 1.1096
 Frc consts  --      6.2456                 6.3557                 6.5942
 IR Inten    --      7.9136                13.4695                 1.8791

                     43                     44                     45
                      A                      A                      A
 Frequencies --   3183.5345              3226.3835              3633.9994
 Red. masses --      1.1089                 1.1257                 1.0675
 Frc consts  --      6.6218                 6.9042                 8.3063
 IR Inten    --      3.9274                 8.5405               336.8874

 Optimization completed.
    -- Stationary point found.
 Normal termination of Gaussian 16 at Mon Jul 10 19:57:23 2023.
