 Gaussian 16, Revision B.01,
 Gaussian 16:  ES64L-G16RevB.01 20-Dec-2017

 --------------------------------------------------------------
 #T wB97XD//def2svpp Volume=tight Geom=AllCheckpoint Guess=Read
 --------------------------------------------------------------
 Structure from the checkpoint file:  "35.chk"
 -------
 Monomer
 -------
 Charge =  0 Multiplicity = 1

                         Standard orientation:
 ---------------------------------------------------------------------
 Center     Atomic      Atomic             Coordinates (Angstroms)
 Number     Number       Type             X           Y           Z
 ---------------------------------------------------------------------
      1          6           0        0.000000    0.000000    0.000000
      2         35           0        1.118805    1.118805    1.118805
      3         35           0       -1.118805   -1.118805    1.118805
      4         35           0       -1.118805    1.118805   -1.118805
      5         35           0        1.118805   -1.118805   -1.118805
 ---------------------------------------------------------------------

 SCF Done:  E(RwB97XD) =  -10333.6326288     A.U. after    1 cycles

 The electronic state is 1-A1.
 Alpha  occ. eigenvalues -- -483.09005-483.09005-483.09005-483.09001 -62.67234
 Alpha  occ. eigenvalues --  -62.67234 -62.67234 -62.67232 -56.48052 -56.48052
 Alpha  occ. eigenvalues --  -56.48052 -56.48049 -56.47613 -56.47613 -56.47613
 Alpha  occ. eigenvalues --  -56.47611 -56.47611 -56.47611 -56.47611 -56.47611
 Alpha  occ. eigenvalues --  -10.50623  -8.84201  -8.84201  -8.84201  -8.84198
 Alpha  occ. eigenvalues --   -6.66914  -6.66914  -6.66914  -6.66914  -6.65332
 Alpha  occ. eigenvalues --   -6.65332  -6.65332  -6.65332  -6.65332  -6.65331
 Alpha  occ. eigenvalues --   -6.65331  -6.65331  -2.77247  -2.77245  -2.77245
 Alpha  occ. eigenvalues --   -2.77245  -2.76802  -2.76802  -2.76802  -2.76802
 Alpha  occ. eigenvalues --   -2.76802  -2.76800  -2.76800  -2.76800  -2.75539
 Alpha  occ. eigenvalues --   -2.75539  -2.75539  -2.75539  -2.75539  -2.75539
 Alpha  occ. eigenvalues --   -2.75539  -2.75539  -1.01407  -0.89587  -0.89587
 Alpha  occ. eigenvalues --   -0.89587  -0.69950  -0.55000  -0.55000  -0.55000
 Alpha  occ. eigenvalues --   -0.42685  -0.42685  -0.39877  -0.39877  -0.39877
 Alpha  occ. eigenvalues --   -0.36849  -0.36849  -0.36849
 Alpha virt. eigenvalues --   -0.01966   0.04209   0.04209   0.04209   0.28590
 Alpha virt. eigenvalues --    0.39399   0.39399   0.39399   0.44722   0.44722
 Alpha virt. eigenvalues --    0.44722   0.46163   0.46163   0.55534   0.55534

 Mulliken charges:
               1
     1  C   -0.306209
     2  Br   0.076552
     3  Br   0.076552
     4  Br   0.076552
     5  Br   0.076552
 Sum of Mulliken charges =   0.00000

 Dipole moment (field-independent basis, Debye):
    X=             -0.0000    Y=             -0.0000    Z=             -0.0000  Tot=              0.0000
 Evaluate density.
 Using the total density.
 Monte-Carlo method of calculating molar volume:
 based on  0.001 e/bohr**3 density envelope.
 Number of points per bohr**3 =  100 CutOff= 1.00D-04
 Using the SCF density.
 There are      2376 points.  Will hold      2376 in memory.
 LenV=  1048175973 MDV=  1048576000.
 Box volume =13424.810 fraction occupied=0.084
 Integrated density= 1.3727724360844363D+02 error=-8.7227563915563735D+00

 Normal termination of Gaussian 16 at Thu Sep 29 10:49:58 2022.
