 Gaussian 16, Revision B.01,
 Gaussian 16:  ES64L-G16RevB.01 20-Dec-2017

 --------------------------------------------------------------
 #T wB97XD//def2svpp Volume=tight Geom=AllCheckpoint Guess=Read
 --------------------------------------------------------------
 Structure from the checkpoint file:  "8.chk"
 -------
 Monomer
 -------
 Charge =  0 Multiplicity = 1

                         Standard orientation:
 ---------------------------------------------------------------------
 Center     Atomic      Atomic             Coordinates (Angstroms)
 Number     Number       Type             X           Y           Z
 ---------------------------------------------------------------------
      1          8           0        1.725839   -1.591183    0.849925
      2          6           0        1.567820   -0.183750    0.842863
      3          6           0        0.371942    0.201448   -0.040427
      4          6           0        0.230305    1.740291   -0.022022
      5          8           0        1.408394    2.412896   -0.401703
      6          6           0        0.609067   -0.289086   -1.486130
      7          8           0        0.593666   -1.683388   -1.617320
      8          6           0       -0.883427   -0.461431    0.542546
      9          8           0       -1.020204   -0.114993    1.866951
     10         17           0       -2.392541    0.024457   -0.390357
     11          1           0        2.482346   -1.828230    1.400825
     12          1           0        2.469399    0.300718    0.421999
     13          1           0        1.404416    0.192939    1.870128
     14          1           0       -0.117255    2.061180    0.977724
     15          1           0       -0.546895    2.030217   -0.745114
     16          1           0        1.959461    2.563514    0.375441
     17          1           0        1.562729    0.153631   -1.838740
     18          1           0       -0.191237    0.099248   -2.136056
     19          1           0        1.190530   -2.044980   -0.941404
     20          1           0       -0.835732   -1.548194    0.387354
     21          1           0       -1.740376   -0.627308    2.260103
 ---------------------------------------------------------------------

 SCF Done:  E(RwB97XD) =  -957.516904893     A.U. after    1 cycles

 The electronic state is 1-A.
 Alpha  occ. eigenvalues -- -101.65200 -19.28613 -19.28269 -19.25924 -19.22973
 Alpha  occ. eigenvalues --  -10.40358 -10.35681 -10.34185 -10.32769 -10.31842
 Alpha  occ. eigenvalues --   -9.56014  -7.31338  -7.30464  -7.30422  -1.16130
 Alpha  occ. eigenvalues --   -1.14261  -1.12173  -1.09632  -0.93687  -0.89132
 Alpha  occ. eigenvalues --   -0.78161  -0.76273  -0.75731  -0.66071  -0.65236
 Alpha  occ. eigenvalues --   -0.62584  -0.61408  -0.58583  -0.56761  -0.54576
 Alpha  occ. eigenvalues --   -0.53113  -0.51537  -0.50320  -0.48869  -0.48497
 Alpha  occ. eigenvalues --   -0.46320  -0.44218  -0.42315  -0.40051  -0.39296
 Alpha  occ. eigenvalues --   -0.38218  -0.37581  -0.36770  -0.35399  -0.33614
 Alpha virt. eigenvalues --    0.10388   0.12022   0.12670   0.13481   0.18435
 Alpha virt. eigenvalues --    0.18678   0.20298   0.20874   0.21940   0.22500
 Alpha virt. eigenvalues --    0.23953   0.24703   0.26849   0.28229   0.30072

 Mulliken charges:
               1
     1  O   -0.505310
     2  C    0.029647
     3  C   -0.350949
     4  C    0.044508
     5  O   -0.482533
     6  C    0.094825
     7  O   -0.499601
     8  C    0.132109
     9  O   -0.423667
    10  Cl  -0.173912
    11  H    0.333089
    12  H    0.101219
    13  H    0.113790
    14  H    0.119304
    15  H    0.123033
    16  H    0.321581
    17  H    0.103882
    18  H    0.110077
    19  H    0.326654
    20  H    0.147512
    21  H    0.334742
 Sum of Mulliken charges =  -0.00000

 Dipole moment (field-independent basis, Debye):
    X=              2.6594    Y=             -0.3205    Z=              4.6389  Tot=              5.3567
 Evaluate density.
 Using the total density.
 Monte-Carlo method of calculating molar volume:
 based on  0.001 e/bohr**3 density envelope.
 Number of points per bohr**3 =  100 CutOff= 1.00D-04
 Using the SCF density.
 There are      1920 points.  Will hold      1920 in memory.
 LenV=  1048200963 MDV=  1048576000.
 Box volume = 7082.421 fraction occupied=0.172
 Integrated density= 7.3196415051418498D+01 error=-1.6803584948581502D+01

 Normal termination of Gaussian 16 at Fri Sep 23 14:25:48 2022.
