 Gaussian 16, Revision B.01,
 Gaussian 16:  ES64L-G16RevB.01 20-Dec-2017

 ----------------------------------------------------------------------
 #T wB97XD/def2svpp opt=tight freq int(grid=ultrafine) scf=(verytight,q
 c)
 ----------------------------------------------------------------------
 --------------
 Comment gs min
 --------------
 Symbolic Z-matrix:
 Charge =  0 Multiplicity = 1

 SCF Done:  E(RwB97XD) =  -1037.91168707     a.u. after    7 cycles
 SCF Done:  E(RwB97XD) =  -1037.91274054     a.u. after    4 cycles
 SCF Done:  E(RwB97XD) =  -1037.91280191     a.u. after    3 cycles
 SCF Done:  E(RwB97XD) =  -1037.91280355     a.u. after    2 cycles
 SCF Done:  E(RwB97XD) =  -1037.91280365     a.u. after    2 cycles
 SCF Done:  E(RwB97XD) =  -1037.91280366     a.u. after    2 cycles
 Optimization completed.
    -- Stationary point found.

 1\1\GINC-C241\FOpt\RwB97XD\def2SVPP\C3H6Cl2\PETERCHAO1\04-Aug-2022\0\\
 #T wB97XD/def2svpp opt=tight freq int(grid=ultrafine) scf=(verytight,q
 c)\\Comment gs min\\0,1\C,0.9160934763,0.0224997943,-0.0973956594\C,2.
 434098701,0.0233976107,-0.0422061259\C,2.9922472215,0.04469216,1.37038
 16469\Cl,3.0455982874,-1.4547292424,-0.88481841\Cl,3.045471243,1.47553
 60281,-0.9289433739\H,0.5271238246,-0.8679528812,0.4241757484\H,0.5657
 844444,0.0067742796,-1.1407118281\H,0.5270452691,0.9282186904,0.397129
 1149\H,2.6429503954,-0.8453362962,1.9200009469\H,2.642872087,0.9508349

 Normal termination of Gaussian 16 at Thu Aug  4 16:14:08 2022.

 ---------------------------------------------------------------------
 #T Geom=AllCheck Guess=TCheck SCRF=Check GenChk RwB97XD/def2SVPP Freq
 ---------------------------------------------------------------------
 Structure from the checkpoint file:  "/scratch/user/peterchao1/peterchao1/6097797_1659647584000000611432367/Gau-202459.chk"
 --------------
 Comment gs min
 --------------
 Charge =  0 Multiplicity = 1

                         Standard orientation:
 ---------------------------------------------------------------------
 Center     Atomic      Atomic             Coordinates (Angstroms)
 Number     Number       Type             X           Y           Z
 ---------------------------------------------------------------------
      1          6           0       -0.000001    1.172464   -1.271348
      2          6           0        0.000000    0.341163   -0.000000
      3          6           0       -0.000001    1.172471    1.271343
      4         17           0       -1.465298   -0.717935    0.000002
      5         17           0        1.465299   -0.717933    0.000002
      6          1           0       -0.898190    1.811923   -1.295644
      7          1           0       -0.000001    0.522718   -2.159775
      8          1           0        0.898185    1.811925   -1.295644
      9          1           0       -0.898189    1.811931    1.295635
     10          1           0        0.898185    1.811933    1.295635
     11          1           0       -0.000000    0.522731    2.159774
 ---------------------------------------------------------------------

 SCF Done:  E(RwB97XD) =  -1037.91280366     a.u. after    1 cycles

 The electronic state is 1-A.
 Alpha  occ. eigenvalues -- -101.66940-101.66936 -10.42409 -10.31013 -10.31011
 Alpha  occ. eigenvalues --   -9.57769  -9.57766  -7.33160  -7.33158  -7.32167
 Alpha  occ. eigenvalues --   -7.32166  -7.32147  -7.32147  -1.00559  -0.90886
 Alpha  occ. eigenvalues --   -0.85075  -0.80937  -0.66096  -0.57188  -0.56166
 Alpha  occ. eigenvalues --   -0.54604  -0.50207  -0.47654  -0.46545  -0.45869
 Alpha  occ. eigenvalues --   -0.40292  -0.39033  -0.38008  -0.37243
 Alpha virt. eigenvalues --    0.08915   0.10639   0.13902   0.18809   0.19781
 Alpha virt. eigenvalues --    0.20182   0.22288   0.23106   0.25150   0.27628
 Alpha virt. eigenvalues --    0.43966   0.47998   0.49985   0.51626   0.52605

 Mulliken charges:
               1
     1  C   -0.222856
     2  C   -0.200277
     3  C   -0.222856
     4  Cl  -0.100963
     5  Cl  -0.100962
     6  H    0.137055
     7  H    0.149847
     8  H    0.137055
     9  H    0.137055
    10  H    0.137055
    11  H    0.149847
 Sum of Mulliken charges =   0.00000

 Dipole moment (field-independent basis, Debye):
    X=             -0.0000    Y=              2.2439    Z=             -0.0000  Tot=              2.2439
  Exact polarizability:  56.183   0.000  49.615   0.000   0.000  44.598
 Approx polarizability:  65.742   0.000  55.505   0.000  -0.000  46.970
   1 Symmetry operations used in ECPInt.
 ECPInt:  NShTT=    1081 NPrTT=    4759 LenC2=    1073 LenP2D=    3745.
 LDataN:  DoStor=T MaxTD1= 6 Len=  172
 Calling FoFJK, ICntrl=    100127 FMM=F ISym2X=0 I1Cent= 0 IOpClX= 0 NMat=1 NMatS=1 NMatT=0.
 Full mass-weighted force constant matrix:
 Low frequencies ---  -17.8102  -10.5648    0.0024    0.0041    0.0046    7.1474
 Low frequencies ---  259.2467  281.6702  290.3539
 Diagonal vibrational polarizability:

                      1                      2                      3
                      A                      A                      A
 Frequencies --    259.2467               281.6689               290.3537
 Red. masses --      7.8658                 1.0961                 2.5429
 Frc consts  --      0.3115                 0.0512                 0.1263
 IR Inten    --      1.5921                 0.0000                 0.0000

                      4                      5                      6
                      A                      A                      A
 Frequencies --    315.4764               371.1878               373.5151
 Red. masses --      1.0313                 3.3816                 3.1788
 Frc consts  --      0.0605                 0.2745                 0.2613
 IR Inten    --      0.0010                 2.7231                 0.6673

                      7                      8                      9
                      A                      A                      A
 Frequencies --    400.1733               583.0462               689.9937
 Red. masses --      3.7337                 4.9801                 3.5147
 Frc consts  --      0.3523                 0.9974                 0.9859
 IR Inten    --      4.7812                15.8964                81.1433

                     10                     11                     12
                      A                      A                      A
 Frequencies --    946.6536               964.3462              1033.6080
 Red. masses --      2.4839                 1.4120                 1.2766
 Frc consts  --      1.3115                 0.7737                 0.8035
 IR Inten    --      9.0171                 0.0058                 0.0000

                     13                     14                     15
                      A                      A                      A
 Frequencies --   1155.9305              1197.5535              1237.8330
 Red. masses --      1.7619                 1.9873                 3.1426
 Frc consts  --      1.3870                 1.6792                 2.8370
 IR Inten    --     78.1967                37.7866                 7.8689

                     16                     17                     18
                      A                      A                      A
 Frequencies --   1414.5948              1428.3846              1471.3816
 Red. masses --      1.3378                 1.2506                 1.0503
 Frc consts  --      1.5772                 1.5033                 1.3397
 IR Inten    --     19.2858                 8.0313                 4.8926

                     19                     20                     21
                      A                      A                      A
 Frequencies --   1472.7260              1485.3217              1494.6811
 Red. masses --      1.0421                 1.0483                 1.0424
 Frc consts  --      1.3317                 1.3626                 1.3720
 IR Inten    --      0.0000                 5.3091                 9.6889

                     22                     23                     24
                      A                      A                      A
 Frequencies --   3049.4962              3052.6461              3147.9686
 Red. masses --      1.0364                 1.0369                 1.1065
 Frc consts  --      5.6786                 5.6928                 6.4602
 IR Inten    --      4.4343                 9.6484                 0.0000

                     25                     26                     27
                      A                      A                      A
 Frequencies --   3152.3877              3166.9429              3168.0833
 Red. masses --      1.1056                 1.1062                 1.1064
 Frc consts  --      6.4731                 6.5368                 6.5427
 IR Inten    --     12.0652                 1.9220                 4.1017

 Optimization completed.
    -- Stationary point found.

 1\1\GINC-C241\Freq\RwB97XD\def2SVPP\C3H6Cl2\PETERCHAO1\04-Aug-2022\0\\
 #T Geom=AllCheck Guess=TCheck SCRF=Check GenChk RwB97XD/def2SVPP Freq\
 \Comment gs min\\0,1\C,0.9160934763,0.0224997943,-0.0973956594\C,2.434
 098701,0.0233976107,-0.0422061259\C,2.9922472215,0.04469216,1.37038164
 69\Cl,3.0455982874,-1.4547292424,-0.88481841\Cl,3.045471243,1.47553602
 81,-0.9289433739\H,0.5271238246,-0.8679528812,0.4241757484\H,0.5657844
 444,0.0067742796,-1.1407118281\H,0.5270452691,0.9282186904,0.397129114
 9\H,2.6429503954,-0.8453362962,1.9200009469\H,2.642872087,0.950834978,

 Normal termination of Gaussian 16 at Thu Aug  4 16:14:37 2022.
