 Gaussian 16, Revision B.01,
 Gaussian 16:  ES64L-G16RevB.01 20-Dec-2017

 ------------------------------------------------------------------
 #T wB97XD/def2svpp opt freq int(grid=ultrafine) scf=(verytight,qc)
 ------------------------------------------------------------------
 --------------
 Comment gs min
 --------------
 Symbolic Z-matrix:
 Charge =  0 Multiplicity = 1

 SCF Done:  E(RwB97XD) =  -1458.08084529     a.u. after    7 cycles
 SCF Done:  E(RwB97XD) =  -1458.08144408     a.u. after    4 cycles
 SCF Done:  E(RwB97XD) =  -1458.08147086     a.u. after    3 cycles
 SCF Done:  E(RwB97XD) =  -1458.08146658     a.u. after    2 cycles
 Optimization completed.
    -- Stationary point found.

 1\1\GINC-C041\FOpt\RwB97XD\def2SVPP\C2H3Cl3\PETERCHAO1\05-Aug-2022\0\\
 #T wB97XD/def2svpp opt freq int(grid=ultrafine) scf=(verytight,qc)\\Co
 mment gs min\\0,1\C,1.0913285692,0.0163357032,-0.044720171\C,2.6075331
 967,0.0163823595,-0.0447398694\Cl,3.2191278407,0.9344604572,1.36401541
 76\Cl,3.2191980666,-1.6627238862,0.0456747357\Cl,3.2190604325,0.777458
 5224,-1.544136884\H,0.7238760564,-0.4523366655,0.8816092047\H,0.723880
 7123,-0.5515139532,-0.9137767655\H,0.7239351256,1.0529074627,-0.101985
 668\\Version=ES64L-G16RevB.01\State=1-A\HF=-1458.0814666\RMSD=6.577e-0

 Normal termination of Gaussian 16 at Fri Aug  5 12:58:08 2022.

 ---------------------------------------------------------------------
 #T Geom=AllCheck Guess=TCheck SCRF=Check GenChk RwB97XD/def2SVPP Freq
 ---------------------------------------------------------------------
 Structure from the checkpoint file:  "/scratch/user/peterchao1/peterchao1/6101686_1659722224000000899618534/Gau-161640.chk"
 --------------
 Comment gs min
 --------------
 Charge =  0 Multiplicity = 1

                         Standard orientation:
 ---------------------------------------------------------------------
 Center     Atomic      Atomic             Coordinates (Angstroms)
 Number     Number       Type             X           Y           Z
 ---------------------------------------------------------------------
      1          6           0       -0.000069    0.000045    1.765345
      2          6           0       -0.000031    0.000046    0.249140
      3         17           0       -1.458882    0.836202   -0.362501
      4         17           0        1.453730    0.845186   -0.362435
      5         17           0        0.005205   -1.681426   -0.362431
      6          1           0       -0.004658    1.038168    2.132824
      7          1           0        0.901218   -0.515098    2.132821
      8          1           0       -0.896867   -0.522980    2.132682
 ---------------------------------------------------------------------

 SCF Done:  E(RwB97XD) =  -1458.08146658     a.u. after    1 cycles

 The electronic state is 1-A.
 Alpha  occ. eigenvalues -- -101.69102-101.69101-101.69096 -10.47837 -10.32487
 Alpha  occ. eigenvalues --   -9.59957  -9.59956  -9.59952  -7.35387  -7.35386
 Alpha  occ. eigenvalues --   -7.35384  -7.34324  -7.34322  -7.34321  -7.34310
 Alpha  occ. eigenvalues --   -7.34310  -7.34309  -1.04630  -0.93229  -0.93228
 Alpha  occ. eigenvalues --   -0.84879  -0.68790  -0.58196  -0.58195  -0.55698
 Alpha  occ. eigenvalues --   -0.49592  -0.49591  -0.43116  -0.43115  -0.40618
 Alpha  occ. eigenvalues --   -0.39593  -0.39592  -0.38300
 Alpha virt. eigenvalues --    0.06220   0.09390   0.09392   0.15577   0.20477
 Alpha virt. eigenvalues --    0.20477   0.23258   0.47589   0.47589   0.48231
 Alpha virt. eigenvalues --    0.49223   0.53681   0.53684   0.64240   0.64242

 Mulliken charges:
               1
     1  C   -0.216817
     2  C   -0.096805
     3  Cl  -0.049724
     4  Cl  -0.049751
     5  Cl  -0.049713
     6  H    0.154278
     7  H    0.154270
     8  H    0.154263
 Sum of Mulliken charges =  -0.00000

 Dipole moment (field-independent basis, Debye):
    X=             -0.0003    Y=             -0.0001    Z=              1.8033  Tot=              1.8033
  Exact polarizability:  51.028   0.000  51.015  -0.000  -0.001  42.001
 Approx polarizability:  60.922   0.000  60.915  -0.000   0.000  46.637
   1 Symmetry operations used in ECPInt.
 ECPInt:  NShTT=     903 NPrTT=    4199 LenC2=     886 LenP2D=    3113.
 LDataN:  DoStor=T MaxTD1= 6 Len=  172
 Calling FoFJK, ICntrl=    100127 FMM=F ISym2X=0 I1Cent= 0 IOpClX= 0 NMat=1 NMatS=1 NMatT=0.
 Full mass-weighted force constant matrix:
 Low frequencies ---   -4.8907   -0.0028    0.0035    0.0042    7.9633   12.3448
 Low frequencies ---  244.1404  244.2094  323.7846
 Diagonal vibrational polarizability:

                      1                      2                      3
                      A                      A                      A
 Frequencies --    244.1404               244.2092               323.7834
 Red. masses --     10.1969                10.1994                 1.0187
 Frc consts  --      0.3581                 0.3584                 0.0629
 IR Inten    --      0.3805                 0.3785                 0.0001

                      4                      5                      6
                      A                      A                      A
 Frequencies --    353.7393               353.8521               354.1892
 Red. masses --      4.1887                 4.2087                13.0316
 Frc consts  --      0.3088                 0.3105                 0.9632
 IR Inten    --      0.9155                 0.9086                 2.2867

                      7                      8                      9
                      A                      A                      A
 Frequencies --    542.1366               737.9408               739.5075
 Red. masses --      7.5533                 4.4609                 4.4461
 Frc consts  --      1.3080                 1.4312                 1.4326
 IR Inten    --     12.1822               114.7207               114.4074

                     10                     11                     12
                      A                      A                      A
 Frequencies --   1114.1772              1117.1605              1117.1793
 Red. masses --      5.3573                 1.5817                 1.5839
 Frc consts  --      3.9184                 1.1630                 1.1647
 IR Inten    --     23.2133                55.7017                55.7963

                     13                     14                     15
                      A                      A                      A
 Frequencies --   1420.6440              1476.4464              1476.6278
 Red. masses --      1.2692                 1.0408                 1.0408
 Frc consts  --      1.5092                 1.3367                 1.3371
 IR Inten    --     12.0283                 5.8583                 5.8551

                     16                     17                     18
                      A                      A                      A
 Frequencies --   3063.5061              3175.0965              3175.3666
 Red. masses --      1.0353                 1.1073                 1.1073
 Frc consts  --      5.7247                 6.5773                 6.5780
 IR Inten    --      1.7351                 0.8609                 0.8597

                           ! Non-Optimized Parameters !

 1\1\GINC-C041\Freq\RwB97XD\def2SVPP\C2H3Cl3\PETERCHAO1\05-Aug-2022\0\\
 #T Geom=AllCheck Guess=TCheck SCRF=Check GenChk RwB97XD/def2SVPP Freq\
 \Comment gs min\\0,1\C,1.0913285692,0.0163357032,-0.044720171\C,2.6075
 331967,0.0163823595,-0.0447398694\Cl,3.2191278407,0.9344604572,1.36401
 54176\Cl,3.2191980666,-1.6627238862,0.0456747357\Cl,3.2190604325,0.777
 4585224,-1.544136884\H,0.7238760564,-0.4523366655,0.8816092047\H,0.723
 8807123,-0.5515139532,-0.9137767655\H,0.7239351256,1.0529074627,-0.101
 985668\\Version=ES64L-G16RevB.01\State=1-A\HF=-1458.0814666\RMSD=6.577

 Normal termination of Gaussian 16 at Fri Aug  5 12:58:39 2022.
