 Gaussian 16, Revision B.01,
 Gaussian 16:  ES64L-G16RevB.01 20-Dec-2017

 ----------------------------------------------------------------------
 #T wB97XD/def2svpp opt=tight freq int(grid=ultrafine) scf=(verytight,q
 c)
 ----------------------------------------------------------------------
 --------------
 Comment gs min
 --------------
 Symbolic Z-matrix:
 Charge =  0 Multiplicity = 1

 SCF Done:  E(RwB97XD) =  -478.205250078     a.u. after    8 cycles
 SCF Done:  E(RwB97XD) =  -478.210045762     a.u. after    9 cycles
 SCF Done:  E(RwB97XD) =  -478.212147073     a.u. after    9 cycles
 SCF Done:  E(RwB97XD) =  -478.212893155     a.u. after   12 cycles
 SCF Done:  E(RwB97XD) =  -478.214050510     a.u. after   10 cycles
 SCF Done:  E(RwB97XD) =  -478.213479547     a.u. after    9 cycles
 SCF Done:  E(RwB97XD) =  -478.215821631     a.u. after    7 cycles
 SCF Done:  E(RwB97XD) =  -478.216223833     a.u. after    7 cycles
 SCF Done:  E(RwB97XD) =  -478.216258693     a.u. after    6 cycles
 SCF Done:  E(RwB97XD) =  -478.216256254     a.u. after    6 cycles
 SCF Done:  E(RwB97XD) =  -478.216313736     a.u. after    3 cycles
 SCF Done:  E(RwB97XD) =  -478.216314297     a.u. after    2 cycles
 SCF Done:  E(RwB97XD) =  -478.216314406     a.u. after    2 cycles
 SCF Done:  E(RwB97XD) =  -478.216314479     a.u. after    2 cycles
 SCF Done:  E(RwB97XD) =  -478.216314485     a.u. after    2 cycles
 SCF Done:  E(RwB97XD) =  -478.216314490     a.u. after    2 cycles
 SCF Done:  E(RwB97XD) =  -478.216314487     a.u. after    2 cycles
 SCF Done:  E(RwB97XD) =  -478.216314490     a.u. after    2 cycles
 SCF Done:  E(RwB97XD) =  -478.216314489     a.u. after    2 cycles
 Optimization completed.
    -- Stationary point found.
 Normal termination of Gaussian 16 at Thu Aug  4 16:27:28 2022.

 ---------------------------------------------------------------------
 #T Geom=AllCheck Guess=TCheck SCRF=Check GenChk RwB97XD/def2SVPP Freq
 ---------------------------------------------------------------------
 Structure from the checkpoint file:  "/scratch/user/peterchao1/peterchao1/6097778_1659647557000000839395312/Gau-146970.chk"
 --------------
 Comment gs min
 --------------
 Charge =  0 Multiplicity = 1

                         Standard orientation:
 ---------------------------------------------------------------------
 Center     Atomic      Atomic             Coordinates (Angstroms)
 Number     Number       Type             X           Y           Z
 ---------------------------------------------------------------------
      1          7           0        2.166356   -1.196186   -0.217115
      2          6           0        0.912706   -0.846699   -0.883626
      3          6           0       -0.012005   -0.000714    0.010553
      4          6           0        0.818528    0.942961    0.904883
      5          8           0        1.878128    1.548971    0.230227
      6          6           0       -0.924188    0.805257   -0.930191
      7          8           0       -2.117358    1.249333   -0.318160
      8          6           0       -0.879006   -0.894107    0.919083
      9          8           0       -1.909201   -1.551292    0.237613
     10          1           0        2.773282   -1.721260   -0.845463
     11          1           0        1.999868   -1.788063    0.597458
     12          1           0        0.333226   -1.723176   -1.239050
     13          1           0        1.182673   -0.255353   -1.776359
     14          1           0        1.174635    0.381450    1.795374
     15          1           0        0.170139    1.750281    1.295025
     16          1           0        2.480684    0.807587    0.019231
     17          1           0       -1.249646    0.167424   -1.768000
     18          1           0       -0.345770    1.648884   -1.354757
     19          1           0       -1.906908    1.917693    0.347533
     20          1           0       -1.279203   -0.281963    1.754067
     21          1           0       -0.252212   -1.677731    1.381687
     22          1           0       -2.554020   -0.868750   -0.008599
 ---------------------------------------------------------------------

 SCF Done:  E(RwB97XD) =  -478.216314489     a.u. after    1 cycles

 The electronic state is 1-A.
 Alpha  occ. eigenvalues --  -19.26614 -19.24284 -19.23148 -14.44191 -10.33999
 Alpha  occ. eigenvalues --  -10.33796 -10.33565 -10.32426 -10.30302  -1.12990
 Alpha  occ. eigenvalues --   -1.10585  -1.10215  -0.99285  -0.89122  -0.78333
 Alpha  occ. eigenvalues --   -0.75575  -0.74476  -0.65378  -0.62681  -0.61072
 Alpha  occ. eigenvalues --   -0.59871  -0.56932  -0.56158  -0.54110  -0.53144
 Alpha  occ. eigenvalues --   -0.51293  -0.49725  -0.47925  -0.46396  -0.44259
 Alpha  occ. eigenvalues --   -0.42425  -0.42189  -0.40471  -0.37224  -0.34949
 Alpha  occ. eigenvalues --   -0.34047  -0.33244
 Alpha virt. eigenvalues --    0.10921   0.12729   0.15489   0.17090   0.18565
 Alpha virt. eigenvalues --    0.18992   0.19731   0.20358   0.21197   0.24053
 Alpha virt. eigenvalues --    0.24605   0.24972   0.26205   0.27346   0.28326

 Mulliken charges:
               1
     1  N   -0.542447
     2  C   -0.073256
     3  C   -0.343481
     4  C    0.077416
     5  O   -0.498139
     6  C    0.019670
     7  O   -0.498466
     8  C    0.075712
     9  O   -0.494848
    10  H    0.238042
    11  H    0.233773
    12  H    0.119892
    13  H    0.113492
    14  H    0.085565
    15  H    0.075078
    16  H    0.331515
    17  H    0.118211
    18  H    0.124548
    19  H    0.325750
    20  H    0.087161
    21  H    0.090467
    22  H    0.334346
 Sum of Mulliken charges =   0.00000

 Dipole moment (field-independent basis, Debye):
    X=              1.0719    Y=             -0.9976    Z=              0.2396  Tot=              1.4838
  Exact polarizability:  70.993  -3.067  66.513  -0.918   1.310  64.922
 Approx polarizability:  74.110  -1.893  72.148  -0.785   1.138  70.496
   1 Symmetry operations used in ECPInt.
 ECPInt:  NShTT=    3240 NPrTT=   13036 LenC2=    3209 LenP2D=   10228.
 LDataN:  DoStor=T MaxTD1= 6 Len=  172
 Calling FoFJK, ICntrl=    100127 FMM=F ISym2X=0 I1Cent= 0 IOpClX= 0 NMat=1 NMatS=1 NMatT=0.
 Full mass-weighted force constant matrix:
 Low frequencies ---  -12.9862  -11.9085   -3.2859    0.0004    0.0011    0.0012
 Low frequencies ---  102.9602  134.7474  162.5000
 Diagonal vibrational polarizability:

                      1                      2                      3
                      A                      A                      A
 Frequencies --    102.9232               134.7348               162.4918
 Red. masses --      3.6991                 4.5463                 3.8849
 Frc consts  --      0.0231                 0.0486                 0.0604
 IR Inten    --      9.2704                 2.9875                 5.9708

                      4                      5                      6
                      A                      A                      A
 Frequencies --    175.2071               198.9221               275.9436
 Red. masses --      2.3764                 3.5897                 3.7046
 Frc consts  --      0.0430                 0.0837                 0.1662
 IR Inten    --      2.2292                 6.0211                 4.6918

                      7                      8                      9
                      A                      A                      A
 Frequencies --    290.7919               306.6615               334.7102
 Red. masses --      1.9485                 1.5959                 1.7176
 Frc consts  --      0.0971                 0.0884                 0.1134
 IR Inten    --      3.4378                21.3205                30.9365

                     10                     11                     12
                      A                      A                      A
 Frequencies --    367.3294               375.2039               422.9642
 Red. masses --      1.5298                 1.6028                 5.8178
 Frc consts  --      0.1216                 0.1329                 0.6132
 IR Inten    --     85.4745                24.8373                 0.2770

                     13                     14                     15
                      A                      A                      A
 Frequencies --    433.3576               527.9338               617.5068
 Red. masses --      3.7862                 2.5011                 1.1155
 Frc consts  --      0.4189                 0.4107                 0.2506
 IR Inten    --     14.4898                 9.5771               156.6921

                     16                     17                     18
                      A                      A                      A
 Frequencies --    660.7350               760.1943               808.4295
 Red. masses --      2.5975                 1.2319                 2.2790
 Frc consts  --      0.6681                 0.4194                 0.8775
 IR Inten    --     13.8307                52.7234                30.7551

                     19                     20                     21
                      A                      A                      A
 Frequencies --    880.3003               889.0880               923.3476
 Red. masses --      1.2896                 1.9204                 1.6840
 Frc consts  --      0.5888                 0.8944                 0.8459
 IR Inten    --    128.5312                 5.1719                 5.1580

                     22                     23                     24
                      A                      A                      A
 Frequencies --    950.5363              1025.8861              1082.5781
 Red. masses --      1.5341                 1.4928                 2.9860
 Frc consts  --      0.8167                 0.9257                 2.0619
 IR Inten    --     59.6724                31.7572                37.3885

                     25                     26                     27
                      A                      A                      A
 Frequencies --   1115.4297              1132.2532              1144.2105
 Red. masses --      3.6823                 3.1852                 1.6889
 Frc consts  --      2.6993                 2.4059                 1.3028
 IR Inten    --     56.5417                27.8441               134.4002

                     28                     29                     30
                      A                      A                      A
 Frequencies --   1160.9943              1178.1454              1179.6730
 Red. masses --      1.9272                 3.3783                 1.5759
 Frc consts  --      1.5305                 2.7628                 1.2921
 IR Inten    --     92.5434                28.9930                22.6341

                     31                     32                     33
                      A                      A                      A
 Frequencies --   1248.5560              1253.3469              1297.3790
 Red. masses --      1.2439                 1.3337                 2.2985
 Frc consts  --      1.1424                 1.2344                 2.2794
 IR Inten    --      4.8900                13.1537                15.2528

                     34                     35                     36
                      A                      A                      A
 Frequencies --   1318.0367              1346.8082              1389.8845
 Red. masses --      1.7023                 1.2911                 1.2862
 Frc consts  --      1.7424                 1.3798                 1.4640
 IR Inten    --      9.6956                 6.6953                10.9388

                     37                     38                     39
                      A                      A                      A
 Frequencies --   1421.7100              1433.0934              1440.4673
 Red. masses --      1.2481                 1.3146                 1.3352
 Frc consts  --      1.4864                 1.5907                 1.6323
 IR Inten    --     12.9162                16.0728                33.8121

                     40                     41                     42
                      A                      A                      A
 Frequencies --   1449.1738              1459.8802              1474.3521
 Red. masses --      1.3773                 1.3972                 1.2108
 Frc consts  --      1.7042                 1.7544                 1.5507
 IR Inten    --     54.9428                 6.1120                88.5120

                     43                     44                     45
                      A                      A                      A
 Frequencies --   1499.3467              1508.2880              1513.3300
 Red. masses --      1.0881                 1.0900                 1.0832
 Frc consts  --      1.4413                 1.4610                 1.4616
 IR Inten    --      5.9522                 0.8758                10.3123

                     46                     47                     48
                      A                      A                      A
 Frequencies --   1520.9922              1669.0005              2981.1672
 Red. masses --      1.0872                 1.0912                 1.0675
 Frc consts  --      1.4818                 1.7909                 5.5899
 IR Inten    --      4.6732                44.9999                39.8943

                     49                     50                     51
                      A                      A                      A
 Frequencies --   2997.8815              3008.8933              3034.6237
 Red. masses --      1.0693                 1.0674                 1.0668
 Frc consts  --      5.6620                 5.6934                 5.7885
 IR Inten    --     80.1742                34.0081                30.2671

                     52                     53                     54
                      A                      A                      A
 Frequencies --   3058.1313              3080.8557              3083.8021
 Red. masses --      1.0986                 1.0993                 1.1008
 Frc consts  --      6.0534                 6.1477                 6.1678
 IR Inten    --     48.2147                43.0550                25.5532

                     55                     56                     57
                      A                      A                      A
 Frequencies --   3118.1842              3499.5428              3573.0526
 Red. masses --      1.1037                 1.0519                 1.0653
 Frc consts  --      6.3225                 7.5903                 8.0134
 IR Inten    --     17.8950                 3.4089               174.6948

                     58                     59                     60
                      A                      A                      A
 Frequencies --   3581.8657              3718.9635              3777.6523
 Red. masses --      1.0926                 1.0653                 1.0661
 Frc consts  --      8.2590                 8.6810                 8.9637
 IR Inten    --      3.5547                76.1136                32.2007

 Optimization completed.
    -- Stationary point found.
 Normal termination of Gaussian 16 at Thu Aug  4 16:30:04 2022.
