 Gaussian 16, Revision B.01,
 Gaussian 16:  ES64L-G16RevB.01 20-Dec-2017

 --------------------------------------------------------------
 #T wB97XD//def2svpp Volume=tight Geom=AllCheckpoint Guess=Read
 --------------------------------------------------------------
 Structure from the checkpoint file:  "monomer.chk"
 -------
 Monomer
 -------
 Charge =  0 Multiplicity = 1

                         Standard orientation:
 ---------------------------------------------------------------------
 Center     Atomic      Atomic             Coordinates (Angstroms)
 Number     Number       Type             X           Y           Z
 ---------------------------------------------------------------------
      1          6           0       -0.781609    1.850793   -0.520441
      2          6           0       -0.998435    0.429487    0.007885
      3          6           0       -0.995695    0.427702    1.541554
      4          6           0       -2.370541   -0.068836   -0.505773
      5          8           0       -2.704831   -1.369392   -0.099234
      6          6           0        0.045921   -0.541599   -0.554980
      7         35           0        1.883784   -0.191811   -0.000255
      8          1           0        0.199878    2.242809   -0.205223
      9          1           0       -1.559848    2.534045   -0.136676
     10          1           0       -0.818678    1.877417   -1.624518
     11          1           0       -1.091416   -0.595230    1.947968
     12          1           0       -1.829787    1.039976    1.930463
     13          1           0       -0.056114    0.846459    1.937856
     14          1           0       -2.365949   -0.087626   -1.609127
     15          1           0       -3.145742    0.663273   -0.196408
     16          1           0       -2.907377   -1.364095    0.845280
     17          1           0        0.060743   -0.503267   -1.654590
     18          1           0       -0.177372   -1.570535   -0.241686
 ---------------------------------------------------------------------

 SCF Done:  E(RwB97XD) =  -2845.97832279     A.U. after    1 cycles

 The electronic state is 1-A.
 Alpha  occ. eigenvalues -- -483.04319 -62.62537 -56.43301 -56.42951 -56.42944
 Alpha  occ. eigenvalues --  -19.26087 -10.34742 -10.34188 -10.32341 -10.29347
 Alpha  occ. eigenvalues --  -10.29080  -8.79483  -6.62007  -6.60733  -6.60706
 Alpha  occ. eigenvalues --   -2.72374  -2.72018  -2.71996  -2.70981  -2.70981
 Alpha  occ. eigenvalues --   -1.12527  -0.93937  -0.87261  -0.79050  -0.77682
 Alpha  occ. eigenvalues --   -0.75329  -0.64559  -0.60832  -0.56510  -0.55492
 Alpha  occ. eigenvalues --   -0.53698  -0.52289  -0.47694  -0.47000  -0.46835
 Alpha  occ. eigenvalues --   -0.44471  -0.43969  -0.42721  -0.41384  -0.36441
 Alpha  occ. eigenvalues --   -0.35182  -0.34850
 Alpha virt. eigenvalues --    0.08476   0.12444   0.14223   0.16618   0.17889
 Alpha virt. eigenvalues --    0.19062   0.19754   0.20691   0.22124   0.23443
 Alpha virt. eigenvalues --    0.25057   0.25688   0.26624   0.29122   0.30206

 Mulliken charges:
               1
     1  C   -0.277399
     2  C   -0.269870
     3  C   -0.306584
     4  C    0.059869
     5  O   -0.482415
     6  C   -0.184292
     7  Br  -0.133509
     8  H    0.138833
     9  H    0.118393
    10  H    0.118046
    11  H    0.114371
    12  H    0.117127
    13  H    0.144032
    14  H    0.104946
    15  H    0.099750
    16  H    0.322570
    17  H    0.150216
    18  H    0.165917
 Sum of Mulliken charges =  -0.00000

 Dipole moment (field-independent basis, Debye):
    X=             -1.8959    Y=              1.0208    Z=              0.7257  Tot=              2.2722
 Evaluate density.
 Using the total density.
 Monte-Carlo method of calculating molar volume:
 based on  0.001 e/bohr**3 density envelope.
 Number of points per bohr**3 =  100 CutOff= 1.00D-04
 Using the SCF density.
 There are      2123 points.  Will hold      2123 in memory.
 LenV=  1048234958 MDV=  1048576000.
 Box volume = 9571.354 fraction occupied=0.110
 Integrated density= 6.4726736184563748D+01 error=-1.9273263815436252D+01

 Normal termination of Gaussian 16 at Tue Apr  2 13:51:54 2024.
