 Gaussian 16, Revision B.01,
 Gaussian 16:  ES64L-G16RevB.01 20-Dec-2017

 ----------------------------------------------------------------------
 #T wB97XD/def2svpp opt=tight freq int(grid=ultrafine) scf=(verytight,q
 c)
 ----------------------------------------------------------------------
 -----
 dimer
 -----
 Symbolic Z-matrix:
 Charge =  0 Multiplicity = 1

 SCF Done:  E(RwB97XD) =  -725.139004326     a.u. after    8 cycles
 SCF Done:  E(RwB97XD) =  -725.143570267     a.u. after    9 cycles
 SCF Done:  E(RwB97XD) =  -725.142738026     a.u. after   10 cycles
 SCF Done:  E(RwB97XD) =  -725.143937880     a.u. after   12 cycles
 SCF Done:  E(RwB97XD) =  -725.144501456     a.u. after    6 cycles
 SCF Done:  E(RwB97XD) =  -725.144679581     a.u. after    9 cycles
 SCF Done:  E(RwB97XD) =  -725.144778428     a.u. after    9 cycles
 SCF Done:  E(RwB97XD) =  -725.144827476     a.u. after    7 cycles
 SCF Done:  E(RwB97XD) =  -725.144875879     a.u. after    4 cycles
 SCF Done:  E(RwB97XD) =  -725.144894843     a.u. after    5 cycles
 SCF Done:  E(RwB97XD) =  -725.145206110     a.u. after    2 cycles
 SCF Done:  E(RwB97XD) =  -725.145206115     a.u. after    2 cycles
 SCF Done:  E(RwB97XD) =  -725.145206123     a.u. after    2 cycles
 SCF Done:  E(RwB97XD) =  -725.145206134     a.u. after    2 cycles
 SCF Done:  E(RwB97XD) =  -725.145206144     a.u. after    2 cycles
 SCF Done:  E(RwB97XD) =  -725.145206148     a.u. after    2 cycles
 SCF Done:  E(RwB97XD) =  -725.145206148     a.u. after    2 cycles
 SCF Done:  E(RwB97XD) =  -725.145206142     a.u. after    2 cycles
 SCF Done:  E(RwB97XD) =  -725.145206146     a.u. after    2 cycles
 Optimization completed.
    -- Stationary point found.
 Normal termination of Gaussian 16 at Tue Aug  9 17:50:12 2022.

 ---------------------------------------------------------------------
 #T Geom=AllCheck Guess=TCheck SCRF=Check GenChk RwB97XD/def2SVPP Freq
 ---------------------------------------------------------------------
 Structure from the checkpoint file:  "/scratch/user/peterchao1/peterchao1/6113323_1660079103000000798731185/Gau-109716.chk"
 -----
 dimer
 -----
 Charge =  0 Multiplicity = 1

                         Standard orientation:
 ---------------------------------------------------------------------
 Center     Atomic      Atomic             Coordinates (Angstroms)
 Number     Number       Type             X           Y           Z
 ---------------------------------------------------------------------
      1          6           0        2.632826    0.322448    1.551272
      2          6           0        2.516080    0.242845    0.031224
      3          6           0        2.103191    1.580472   -0.570802
      4          6           0        3.799818   -0.298101   -0.606971
      5          7           0        1.438888   -0.799170   -0.301085
      6          8           0        0.697537   -0.576581   -1.234242
      7          8           0        1.420669   -1.813344    0.356784
      8          1           0        1.678853    0.650260    1.993552
      9          1           0        3.412233    1.059829    1.806390
     10          1           0        2.911477   -0.650626    1.982039
     11          1           0        2.864054    2.332378   -0.301313
     12          1           0        1.128775    1.909847   -0.176284
     13          1           0        2.034993    1.527875   -1.667555
     14          1           0        4.623368    0.408683   -0.412401
     15          1           0        3.683082   -0.401838   -1.699052
     16          1           0        4.069530   -1.277870   -0.179951
     17          6           0       -2.103114   -1.580571    0.570429
     18          6           0       -2.516087   -0.242820   -0.031274
     19          6           0       -2.633021   -0.322111   -1.551321
     20          6           0       -3.799750    0.297983    0.607193
     21          7           0       -1.438867    0.799130    0.301142
     22          8           0       -0.697708    0.576530    1.234449
     23          8           0       -1.420453    1.813271   -0.356770
     24          1           0       -1.128725   -1.909832    0.175749
     25          1           0       -2.863982   -2.332438    0.300847
     26          1           0       -2.034821   -1.528205    1.667186
     27          1           0       -1.679091   -0.649788   -1.993793
     28          1           0       -2.911765    0.651039   -1.981855
     29          1           0       -3.412427   -1.059474   -1.806494
     30          1           0       -3.682880    0.401485    1.699281
     31          1           0       -4.623322   -0.408761    0.412569
     32          1           0       -4.069522    1.277842    0.180416
 ---------------------------------------------------------------------

 SCF Done:  E(RwB97XD) =  -725.145206146     a.u. after    1 cycles

 The electronic state is 1-A.
 Alpha  occ. eigenvalues --  -19.28756 -19.28755 -19.28734 -19.28728 -14.67354
 Alpha  occ. eigenvalues --  -14.67351 -10.36443 -10.36443 -10.30419 -10.30418
 Alpha  occ. eigenvalues --  -10.29077 -10.29076 -10.28790 -10.28790  -1.33437
 Alpha  occ. eigenvalues --   -1.33184  -1.15425  -1.15385  -0.95137  -0.94934
 Alpha  occ. eigenvalues --   -0.79904  -0.79826  -0.78682  -0.78645  -0.78370
 Alpha  occ. eigenvalues --   -0.78172  -0.65543  -0.65298  -0.64340  -0.62281
 Alpha  occ. eigenvalues --   -0.60556  -0.60207  -0.60198  -0.59952  -0.54051
 Alpha  occ. eigenvalues --   -0.53844  -0.53157  -0.53037  -0.50549  -0.50249
 Alpha  occ. eigenvalues --   -0.48405  -0.48340  -0.48327  -0.48245  -0.45906
 Alpha  occ. eigenvalues --   -0.45855  -0.43766  -0.43448  -0.43422  -0.43036
 Alpha  occ. eigenvalues --   -0.39755  -0.39643  -0.38564  -0.37838  -0.37818
 Alpha  occ. eigenvalues --   -0.37753
 Alpha virt. eigenvalues --    0.00693   0.02237   0.13099   0.13541   0.15599
 Alpha virt. eigenvalues --    0.16446   0.19443   0.19504   0.19573   0.19971
 Alpha virt. eigenvalues --    0.20184   0.21170   0.21587   0.22327   0.23474

 Mulliken charges:
               1
     1  C   -0.275391
     2  C   -0.205310
     3  C   -0.264955
     4  C   -0.261434
     5  N    0.260174
     6  O   -0.259248
     7  O   -0.238613
     8  H    0.161461
     9  H    0.122887
    10  H    0.142563
    11  H    0.120480
    12  H    0.148687
    13  H    0.135021
    14  H    0.135423
    15  H    0.136098
    16  H    0.142155
    17  C   -0.264972
    18  C   -0.205302
    19  C   -0.275376
    20  C   -0.261427
    21  N    0.260173
    22  O   -0.259249
    23  O   -0.238611
    24  H    0.148685
    25  H    0.120479
    26  H    0.135031
    27  H    0.161454
    28  H    0.142558
    29  H    0.122885
    30  H    0.136104
    31  H    0.135425
    32  H    0.142145
 Sum of Mulliken charges =   0.00000

 Dipole moment (field-independent basis, Debye):
    X=             -0.0000    Y=              0.0002    Z=             -0.0003  Tot=              0.0003
  Exact polarizability: 123.338   3.304 106.039   8.084  -7.585 104.903
 Approx polarizability: 119.512  -1.660 126.725  15.761 -19.902 131.231
   1 Symmetry operations used in ECPInt.
 ECPInt:  NShTT=    7260 NPrTT=   29156 LenC2=    7052 LenP2D=   20211.
 LDataN:  DoStor=T MaxTD1= 6 Len=  172
 Calling FoFJK, ICntrl=    100127 FMM=F ISym2X=0 I1Cent= 0 IOpClX= 0 NMat=1 NMatS=1 NMatT=0.
 Full mass-weighted force constant matrix:
 Low frequencies ---  -13.9760  -10.9159   -8.3308   -0.0005    0.0009    0.0013
 Low frequencies ---    6.9485   24.7071   45.8957
 Diagonal vibrational polarizability:

                      1                      2                      3
                      A                      A                      A
 Frequencies --      6.8343                24.7071                45.5577
 Red. masses --      3.3647                 5.1486                 3.6082
 Frc consts  --      0.0001                 0.0019                 0.0044
 IR Inten    --      0.2806                 2.5398                 0.0001

                      4                      5                      6
                      A                      A                      A
 Frequencies --     61.4560                61.9665                76.2884
 Red. masses --      6.2633                 8.8416                 4.3009
 Frc consts  --      0.0139                 0.0200                 0.0147
 IR Inten    --      2.1944                 0.0001                11.5396

                      7                      8                      9
                      A                      A                      A
 Frequencies --     85.7112               102.2074               209.8625
 Red. masses --      5.3521                10.8894                 1.0714
 Frc consts  --      0.0232                 0.0670                 0.0278
 IR Inten    --      0.0015                 0.0003                 1.1782

                     10                     11                     12
                      A                      A                      A
 Frequencies --    213.3780               269.8583               270.1458
 Red. masses --      1.0627                 1.1340                 1.1308
 Frc consts  --      0.0285                 0.0487                 0.0486
 IR Inten    --      0.0000                 0.0000                 1.3442

                     13                     14                     15
                      A                      A                      A
 Frequencies --    277.3416               278.4441               301.2546
 Red. masses --      1.9120                 2.0754                 1.2644
 Frc consts  --      0.0866                 0.0948                 0.0676
 IR Inten    --      0.0000                 9.6053                 0.0000

                     16                     17                     18
                      A                      A                      A
 Frequencies --    301.6335               312.2557               316.2367
 Red. masses --      1.1861                 2.4382                 2.4490
 Frc consts  --      0.0636                 0.1401                 0.1443
 IR Inten    --      3.4374                 3.3331                 0.0000

                     19                     20                     21
                      A                      A                      A
 Frequencies --    372.4246               375.9276               390.1432
 Red. masses --      2.9735                 2.9165                 2.9686
 Frc consts  --      0.2430                 0.2428                 0.2662
 IR Inten    --      0.0000                 0.0960                 0.0000

                     22                     23                     24
                      A                      A                      A
 Frequencies --    395.6874               400.8897               401.0234
 Red. masses --      2.7432                 2.3818                 2.6088
 Frc consts  --      0.2531                 0.2255                 0.2472
 IR Inten    --      8.3636                 0.1640                 7.9138

                     25                     26                     27
                      A                      A                      A
 Frequencies --    549.7964               550.0113               598.2149
 Red. masses --      4.5618                 4.5649                 3.1973
 Frc consts  --      0.8124                 0.8136                 0.6741
 IR Inten    --      0.0006                 4.4469                 0.0002

                     28                     29                     30
                      A                      A                      A
 Frequencies --    598.4154               775.4391               779.1466
 Red. masses --      3.1876                 6.6299                 6.6656
 Frc consts  --      0.6725                 2.3488                 2.3841
 IR Inten    --     15.8859                15.6062                 0.0000

                     31                     32                     33
                      A                      A                      A
 Frequencies --    833.1084               834.1097               920.7490
 Red. masses --      3.0846                 3.0124                 6.9877
 Frc consts  --      1.2614                 1.2348                 3.4903
 IR Inten    --      0.0000                 3.8672                 0.0000

                     34                     35                     36
                      A                      A                      A
 Frequencies --    921.5754               960.2571               960.3855
 Red. masses --      7.3825                 1.4958                 1.4948
 Frc consts  --      3.6942                 0.8127                 0.8123
 IR Inten    --     58.3975                 0.0001                 1.8415

                     37                     38                     39
                      A                      A                      A
 Frequencies --    962.3326               962.5662               986.7763
 Red. masses --      1.5407                 1.5448                 1.2044
 Frc consts  --      0.8407                 0.8433                 0.6910
 IR Inten    --      0.0023                 5.0333                 0.2320

                     40                     41                     42
                      A                      A                      A
 Frequencies --    986.7905              1063.8284              1064.0371
 Red. masses --      1.2043                 1.4445                 1.4458
 Frc consts  --      0.6909                 0.9632                 0.9644
 IR Inten    --      0.1162                 0.2464                 0.0000

                     43                     44                     45
                      A                      A                      A
 Frequencies --   1070.3028              1070.5958              1234.9629
 Red. masses --      1.3980                 1.3977                 2.1660
 Frc consts  --      0.9436                 0.9439                 1.9463
 IR Inten    --      0.6411                 0.0011                56.9612

                     46                     47                     48
                      A                      A                      A
 Frequencies --   1235.7611              1287.8974              1287.9930
 Red. masses --      2.1554                 2.7443                 2.7438
 Frc consts  --      1.9393                 2.6819                 2.6818
 IR Inten    --      0.0001                19.7912                 0.0005

                     49                     50                     51
                      A                      A                      A
 Frequencies --   1308.4370              1309.1425              1405.3057
 Red. masses --      2.6772                 2.6641                 1.2980
 Frc consts  --      2.7004                 2.6902                 1.5103
 IR Inten    --      0.0001                12.5153                25.1805

                     52                     53                     54
                      A                      A                      A
 Frequencies --   1405.5776              1414.5469              1414.6575
 Red. masses --      1.2965                 1.3405                 1.3336
 Frc consts  --      1.5091                 1.5803                 1.5725
 IR Inten    --      0.0015                53.4253                 0.0088

                     55                     56                     57
                      A                      A                      A
 Frequencies --   1433.1953              1435.4608              1465.7434
 Red. masses --      1.3191                 1.2827                 1.0436
 Frc consts  --      1.5964                 1.5573                 1.3209
 IR Inten    --      0.0002                 7.1186                 0.0000

                     58                     59                     60
                      A                      A                      A
 Frequencies --   1465.8450              1481.1525              1481.2364
 Red. masses --      1.0435                 1.0535                 1.0472
 Frc consts  --      1.3210                 1.3617                 1.3538
 IR Inten    --      0.7540                11.2403                 0.0743

                     61                     62                     63
                      A                      A                      A
 Frequencies --   1485.7891              1486.1307              1494.0591
 Red. masses --      1.0465                 1.0463                 1.0711
 Frc consts  --      1.3612                 1.3616                 1.4087
 IR Inten    --      2.0107                 0.0000                 0.0001

                     64                     65                     66
                      A                      A                      A
 Frequencies --   1494.7287              1499.0079              1499.0793
 Red. masses --      1.0781                 1.0845                 1.0844
 Frc consts  --      1.4191                 1.4358                 1.4357
 IR Inten    --      6.7708                18.0248                 0.3451

                     67                     68                     69
                      A                      A                      A
 Frequencies --   1512.2322              1512.3033              1528.1307
 Red. masses --      1.8413                 1.9508                 1.8679
 Frc consts  --      2.4809                 2.6288                 2.5699
 IR Inten    --     36.2847                 0.0088               220.5080

                     70                     71                     72
                      A                      A                      A
 Frequencies --   1528.3084              1744.1664              1755.5008
 Red. masses --      1.7473                13.5054                13.1716
 Frc consts  --      2.4046                24.2065                23.9162
 IR Inten    --      0.0018                 0.0000               490.3432

                     73                     74                     75
                      A                      A                      A
 Frequencies --   3044.4492              3044.4654              3053.9838
 Red. masses --      1.0364                 1.0364                 1.0382
 Frc consts  --      5.6595                 5.6596                 5.7053
 IR Inten    --     19.6864                 0.0006                10.4783

                     76                     77                     78
                      A                      A                      A
 Frequencies --   3054.0524              3059.1210              3059.3759
 Red. masses --      1.0382                 1.0384                 1.0383
 Frc consts  --      5.7055                 5.7254                 5.7260
 IR Inten    --      7.4194                39.4572                 0.3195

                     79                     80                     81
                      A                      A                      A
 Frequencies --   3144.2731              3144.2831              3150.5291
 Red. masses --      1.1059                 1.1059                 1.1044
 Frc consts  --      6.4417                 6.4418                 6.4586
 IR Inten    --      3.5572                 7.4768                 0.4261

                     82                     83                     84
                      A                      A                      A
 Frequencies --   3150.6715              3152.0945              3152.1089
 Red. masses --      1.1043                 1.1061                 1.1061
 Frc consts  --      6.4587                 6.4749                 6.4749
 IR Inten    --      5.2577                 5.9189                 0.1679

                     85                     86                     87
                      A                      A                      A
 Frequencies --   3156.2867              3156.3424              3172.2508
 Red. masses --      1.1041                 1.1040                 1.1067
 Frc consts  --      6.4803                 6.4802                 6.5614
 IR Inten    --      1.9752                20.1708                 3.1023

                     88                     89                     90
                      A                      A                      A
 Frequencies --   3172.3654              3176.3162              3176.3763
 Red. masses --      1.1067                 1.1066                 1.1066
 Frc consts  --      6.5619                 6.5778                 6.5779
 IR Inten    --      4.2071                 3.1987                 0.4642

                           ! Non-Optimized Parameters !
 Normal termination of Gaussian 16 at Tue Aug  9 17:57:57 2022.
