 Gaussian 16, Revision B.01,
 Gaussian 16:  ES64L-G16RevB.01 20-Dec-2017

 ----------------------------------------------------------------------
 #T wB97XD/def2svpp opt=tight freq int(grid=ultrafine) scf=(verytight,q
 c) Volume=tight
 ----------------------------------------------------------------------
 -------
 Monomer
 -------
 Symbolic Z-matrix:
 Charge =  0 Multiplicity = 1

 SCF Done:  E(RwB97XD) =  -3151.82863802     a.u. after    8 cycles
 SCF Done:  E(RwB97XD) =  -3151.83292625     a.u. after    8 cycles
 SCF Done:  E(RwB97XD) =  -3151.83330648     a.u. after    7 cycles
 SCF Done:  E(RwB97XD) =  -3151.83334290     a.u. after    6 cycles
 SCF Done:  E(RwB97XD) =  -3151.83344207     a.u. after    5 cycles
 SCF Done:  E(RwB97XD) =  -3151.83351443     a.u. after    5 cycles
 SCF Done:  E(RwB97XD) =  -3151.83357497     a.u. after    5 cycles
 SCF Done:  E(RwB97XD) =  -3151.83365086     a.u. after    5 cycles
 SCF Done:  E(RwB97XD) =  -3151.83367582     a.u. after    5 cycles
 SCF Done:  E(RwB97XD) =  -3151.83369420     a.u. after    3 cycles
 SCF Done:  E(RwB97XD) =  -3151.83395671     a.u. after    2 cycles
 SCF Done:  E(RwB97XD) =  -3151.83395671     a.u. after    2 cycles
 SCF Done:  E(RwB97XD) =  -3151.83395671     a.u. after    2 cycles
 SCF Done:  E(RwB97XD) =  -3151.83395671     a.u. after    2 cycles
 SCF Done:  E(RwB97XD) =  -3151.83395671     a.u. after    2 cycles
 SCF Done:  E(RwB97XD) =  -3151.83395671     a.u. after    2 cycles
 SCF Done:  E(RwB97XD) =  -3151.83395671     a.u. after    2 cycles
 SCF Done:  E(RwB97XD) =  -3151.83395671     a.u. after    2 cycles
 SCF Done:  E(RwB97XD) =  -3151.83395670     a.u. after    2 cycles
 Optimization completed.
    -- Stationary point found.
 Normal termination of Gaussian 16 at Fri Feb  3 14:54:27 2023.

 ---------------------------------------------------------------------
 #T Geom=AllCheck Guess=TCheck SCRF=Check GenChk RwB97XD/def2SVPP Freq
 ---------------------------------------------------------------------
 Structure from the checkpoint file:  "20.chk"
 -------
 Monomer
 -------
 Charge =  0 Multiplicity = 1

                         Standard orientation:
 ---------------------------------------------------------------------
 Center     Atomic      Atomic             Coordinates (Angstroms)
 Number     Number       Type             X           Y           Z
 ---------------------------------------------------------------------
      1          6           0       -3.123471    0.178276    1.844372
      2          6           0       -2.726129   -0.004711    0.371968
      3          6           0       -3.950152    0.051109   -0.553024
      4         17           0       -5.177365   -1.211185   -0.194580
      5          6           0       -1.737436    1.094060   -0.056736
      6         17           0       -2.393987    2.759461    0.094555
      7          6           0       -2.013468   -1.362315    0.277091
      8         17           0       -1.397717   -1.771116   -1.369278
      9          1           0       -2.227777    0.182544    2.489509
     10          1           0       -3.792951   -0.631617    2.175744
     11          1           0       -3.646981    1.137744    1.983809
     12          1           0       -3.650796   -0.095129   -1.601260
     13          1           0       -4.454646    1.022125   -0.456338
     14          1           0       -1.439334    0.974768   -1.107725
     15          1           0       -0.834806    1.055201    0.571208
     16          1           0       -2.707860   -2.169579    0.548741
     17          1           0       -1.140004   -1.388714    0.943452
     18          6           0        2.856533   -1.888164   -0.310685
     19          6           0        2.899412   -0.356746   -0.208506
     20          6           0        2.730730    0.119446    1.240182
     21         17           0        1.196283   -0.415592    2.014529
     22          6           0        4.241181    0.186812   -0.734171
     23         17           0        5.674886   -0.405397    0.170882
     24          6           0        1.785370    0.181147   -1.119268
     25         17           0        1.619742    1.972346   -1.113052
     26          1           0        3.626501   -2.341486    0.334281
     27          1           0        3.046978   -2.212886   -1.348308
     28          1           0        1.871282   -2.275949   -0.006306
     29          1           0        2.731116    1.217404    1.293005
     30          1           0        3.542028   -0.274050    1.867131
     31          1           0        4.267639    1.284803   -0.686555
     32          1           0        4.383729   -0.122028   -1.780871
     33          1           0        0.811974   -0.227372   -0.815262
     34          1           0        1.967141   -0.114049   -2.163575
 ---------------------------------------------------------------------

 SCF Done:  E(RwB97XD) =  -3151.83395670     a.u. after    1 cycles

 The electronic state is 1-A.
 Alpha  occ. eigenvalues -- -101.68551-101.68119-101.67903-101.67819-101.66688
 Alpha  occ. eigenvalues -- -101.66650 -10.36941 -10.36804 -10.36660 -10.36211
 Alpha  occ. eigenvalues --  -10.35742 -10.35634 -10.35414 -10.34735 -10.30645
 Alpha  occ. eigenvalues --  -10.29769  -9.59257  -9.58857  -9.58623  -9.58586
 Alpha  occ. eigenvalues --   -9.57451  -9.57413  -7.34624  -7.34225  -7.33980
 Alpha  occ. eigenvalues --   -7.33971  -7.33687  -7.33662  -7.33283  -7.33256
 Alpha  occ. eigenvalues --   -7.33048  -7.33039  -7.33002  -7.32971  -7.32835
 Alpha  occ. eigenvalues --   -7.32793  -7.31868  -7.31839  -7.31836  -7.31802
 Alpha  occ. eigenvalues --   -1.00563  -0.99546  -0.96120  -0.95856  -0.95182
 Alpha  occ. eigenvalues --   -0.94653  -0.89744  -0.88720  -0.79888  -0.78825
 Alpha  occ. eigenvalues --   -0.78165  -0.77173  -0.76774  -0.75841  -0.65579
 Alpha  occ. eigenvalues --   -0.64545  -0.60114  -0.59235  -0.58754  -0.57694
 Alpha  occ. eigenvalues --   -0.57338  -0.56281  -0.54980  -0.54122  -0.52950
 Alpha  occ. eigenvalues --   -0.52099  -0.50812  -0.50150  -0.49353  -0.48979
 Alpha  occ. eigenvalues --   -0.48324  -0.47956  -0.47096  -0.46388  -0.46098
 Alpha  occ. eigenvalues --   -0.45568  -0.45242  -0.44684  -0.40930  -0.40180
 Alpha  occ. eigenvalues --   -0.39851  -0.39733  -0.39065  -0.38952  -0.38601
 Alpha  occ. eigenvalues --   -0.38338  -0.37985  -0.37545  -0.37309  -0.36809
 Alpha virt. eigenvalues --    0.08627   0.09662   0.10361   0.10674   0.11340
 Alpha virt. eigenvalues --    0.11551   0.13032   0.15303   0.15630   0.16278
 Alpha virt. eigenvalues --    0.17014   0.17409   0.17873   0.18178   0.19015

 Mulliken charges:
               1
     1  C   -0.280138
     2  C   -0.261081
     3  C   -0.123088
     4  Cl  -0.154053
     5  C   -0.152849
     6  Cl  -0.146254
     7  C   -0.149142
     8  Cl  -0.148246
     9  H    0.126561
    10  H    0.137533
    11  H    0.141853
    12  H    0.160227
    13  H    0.166562
    14  H    0.164457
    15  H    0.159010
    16  H    0.172485
    17  H    0.161060
    18  C   -0.278460
    19  C   -0.266492
    20  C   -0.124865
    21  Cl  -0.141727
    22  C   -0.130792
    23  Cl  -0.144610
    24  C   -0.155034
    25  Cl  -0.138282
    26  H    0.142746
    27  H    0.126366
    28  H    0.141855
    29  H    0.167264
    30  H    0.170690
    31  H    0.167533
    32  H    0.159120
    33  H    0.170692
    34  H    0.159098
 Sum of Mulliken charges =  -0.00000

 Dipole moment (field-independent basis, Debye):
    X=              1.9245    Y=             -0.8155    Z=             -0.2711  Tot=              2.1077
  Exact polarizability: 185.523  -1.484 153.805  -4.803  -0.235 137.027
 Approx polarizability: 184.897  -0.286 183.259  -4.359  -1.460 167.084
   1 Symmetry operations used in ECPInt.
 ECPInt:  NShTT=   10440 NPrTT=   45472 LenC2=    9454 LenP2D=   27358.
 LDataN:  DoStor=T MaxTD1= 6 Len=  172
 Calling FoFJK, ICntrl=    100127 FMM=F ISym2X=0 I1Cent= 0 IOpClX= 0 NMat=1 NMatS=1 NMatT=0.
 Full mass-weighted force constant matrix:
 Low frequencies ---   -3.4008   -2.9279   -0.0027   -0.0007    0.0038    3.8874
 Low frequencies ---   14.3238   18.1505   24.4505
 Diagonal vibrational polarizability:

                      1                      2                      3
                      A                      A                      A
 Frequencies --     14.2095                18.1474                24.4013
 Red. masses --     10.5554                 9.5068                11.0274
 Frc consts  --      0.0013                 0.0018                 0.0039
 IR Inten    --      0.5041                 0.1921                 0.3047

                      4                      5                      6
                      A                      A                      A
 Frequencies --     36.1046                45.4601                55.0915
 Red. masses --     10.1540                10.7693                10.8317
 Frc consts  --      0.0078                 0.0131                 0.0194
 IR Inten    --      0.1368                 0.0769                 0.5499

                      7                      8                      9
                      A                      A                      A
 Frequencies --     71.3390                73.6454               103.1201
 Red. masses --      8.3256                10.0113                 5.6412
 Frc consts  --      0.0250                 0.0320                 0.0353
 IR Inten    --      1.0221                 1.7613                 1.4165

                     10                     11                     12
                      A                      A                      A
 Frequencies --    107.9780               123.3430               124.3044
 Red. masses --      5.0837                 8.6974                 9.1097
 Frc consts  --      0.0349                 0.0780                 0.0829
 IR Inten    --      3.9497                 5.8436                 2.2490

                     13                     14                     15
                      A                      A                      A
 Frequencies --    175.9823               182.1513               218.6644
 Red. masses --      3.1207                 3.0049                 3.2895
 Frc consts  --      0.0569                 0.0587                 0.0927
 IR Inten    --      2.2461                 0.4637                 1.0594

                     16                     17                     18
                      A                      A                      A
 Frequencies --    220.8208               232.7339               240.9204
 Red. masses --      4.1279                 3.7437                 1.1901
 Frc consts  --      0.1186                 0.1195                 0.0407
 IR Inten    --      0.2071                 2.5595                 0.7862

                     19                     20                     21
                      A                      A                      A
 Frequencies --    244.1818               253.1895               326.6455
 Red. masses --      3.9995                 1.2558                 3.0134
 Frc consts  --      0.1405                 0.0474                 0.1894
 IR Inten    --      7.3846                 1.2049                 3.8286

                     22                     23                     24
                      A                      A                      A
 Frequencies --    329.1014               330.8094               334.2887
 Red. masses --      2.3704                 3.0349                 2.4272
 Frc consts  --      0.1513                 0.1957                 0.1598
 IR Inten    --      0.7575                 3.9568                 1.7354

                     25                     26                     27
                      A                      A                      A
 Frequencies --    391.2313               394.2462               452.3161
 Red. masses --      3.1473                 3.0766                 2.9809
 Frc consts  --      0.2838                 0.2817                 0.3593
 IR Inten    --      2.5045                 2.9700                 1.5479

                     28                     29                     30
                      A                      A                      A
 Frequencies --    452.5052               525.6218               526.0822
 Red. masses --      2.9482                 3.2295                 3.1842
 Frc consts  --      0.3557                 0.5257                 0.5192
 IR Inten    --      3.6010                11.3554                 5.1337

                     31                     32                     33
                      A                      A                      A
 Frequencies --    718.4330               720.8982               778.9564
 Red. masses --      4.3670                 4.5161                 5.0980
 Frc consts  --      1.3280                 1.3828                 1.8225
 IR Inten    --      1.5432                 5.6786                46.7718

                     34                     35                     36
                      A                      A                      A
 Frequencies --    782.0431               792.7919               795.6489
 Red. masses --      4.9624                 4.7236                 4.8906
 Frc consts  --      1.7881                 1.7492                 1.8241
 IR Inten    --     24.5241                42.2157                32.6981

                     37                     38                     39
                      A                      A                      A
 Frequencies --    824.0639               827.4274               875.2165
 Red. masses --      3.8787                 3.8689                 1.7927
 Frc consts  --      1.5519                 1.5606                 0.8091
 IR Inten    --      7.7289                 6.9094                 4.0414

                     40                     41                     42
                      A                      A                      A
 Frequencies --    882.0738               899.4098               906.1750
 Red. masses --      1.7055                 1.9131                 2.0013
 Frc consts  --      0.7818                 0.9118                 0.9682
 IR Inten    --      9.8366                16.8097                22.2723

                     43                     44                     45
                      A                      A                      A
 Frequencies --    916.7483               929.1442               983.1337
 Red. masses --      1.6213                 1.5358                 1.5411
 Frc consts  --      0.8028                 0.7812                 0.8776
 IR Inten    --      9.1682                 6.1585                 9.4549

                     46                     47                     48
                      A                      A                      A
 Frequencies --    986.5505              1006.9290              1008.0450
 Red. masses --      1.5332                 1.5522                 1.5754
 Frc consts  --      0.8792                 0.9272                 0.9432
 IR Inten    --      9.4206                 2.8921                 7.9200

                     49                     50                     51
                      A                      A                      A
 Frequencies --   1114.9993              1120.4478              1152.7430
 Red. masses --      1.4621                 1.5212                 1.2870
 Frc consts  --      1.0709                 1.1252                 1.0077
 IR Inten    --      0.1188                 0.0486                 0.7121

                     52                     53                     54
                      A                      A                      A
 Frequencies --   1154.7135              1185.3228              1188.1193
 Red. masses --      1.3383                 1.3953                 1.3439
 Frc consts  --      1.0514                 1.1550                 1.1178
 IR Inten    --      0.8728                 1.4625                 2.1552

                     55                     56                     57
                      A                      A                      A
 Frequencies --   1243.4075              1245.4127              1261.8520
 Red. masses --      1.3763                 1.4273                 1.5196
 Frc consts  --      1.2537                 1.3044                 1.4256
 IR Inten    --      1.5402                 1.6862                 6.2892

                     58                     59                     60
                      A                      A                      A
 Frequencies --   1271.0630              1308.4701              1312.2856
 Red. masses --      1.4097                 1.2999                 1.3472
 Frc consts  --      1.3419                 1.3112                 1.3669
 IR Inten    --      5.3108                 8.3310                 3.9353

                     61                     62                     63
                      A                      A                      A
 Frequencies --   1341.7137              1345.0450              1351.1135
 Red. masses --      1.5510                 1.4996                 1.4941
 Frc consts  --      1.6450                 1.5984                 1.6070
 IR Inten    --     18.7166                11.5665                17.8899

                     64                     65                     66
                      A                      A                      A
 Frequencies --   1355.9973              1359.5483              1360.9610
 Red. masses --      1.5122                 1.5968                 1.5162
 Frc consts  --      1.6383                 1.7390                 1.6546
 IR Inten    --     11.3955                 0.7395                 7.1904

                     67                     68                     69
                      A                      A                      A
 Frequencies --   1419.2772              1423.3862              1467.8583
 Red. masses --      1.2544                 1.2507                 1.0974
 Frc consts  --      1.4887                 1.4930                 1.3931
 IR Inten    --     12.6960                11.3476                 9.5820

                     70                     71                     72
                      A                      A                      A
 Frequencies --   1473.4750              1473.6825              1475.3525
 Red. masses --      1.0794                 1.0774                 1.0945
 Frc consts  --      1.3808                 1.3785                 1.4036
 IR Inten    --      9.0083                 7.9555                11.5453

                     73                     74                     75
                      A                      A                      A
 Frequencies --   1480.4838              1486.7688              1497.7830
 Red. masses --      1.0789                 1.0644                 1.0675
 Frc consts  --      1.3933                 1.3863                 1.4110
 IR Inten    --      9.4603                11.9390                12.8392

                     76                     77                     78
                      A                      A                      A
 Frequencies --   1499.3884              1500.2535              1504.1696
 Red. masses --      1.0717                 1.0702                 1.0707
 Frc consts  --      1.4195                 1.4192                 1.4273
 IR Inten    --      5.9835                15.2252                17.9135

                     79                     80                     81
                      A                      A                      A
 Frequencies --   3046.7864              3048.1151              3097.6074
 Red. masses --      1.0382                 1.0383                 1.0610
 Frc consts  --      5.6783                 5.6836                 5.9982
 IR Inten    --     10.3832                 9.5229                 7.2858

                     82                     83                     84
                      A                      A                      A
 Frequencies --   3104.0815              3107.5308              3107.7695
 Red. masses --      1.0606                 1.0607                 1.0629
 Frc consts  --      6.0211                 6.0348                 6.0486
 IR Inten    --      4.8561                 6.0093                 4.8484

                     85                     86                     87
                      A                      A                      A
 Frequencies --   3115.8536              3116.0931              3141.0127
 Red. masses --      1.0597                 1.0600                 1.1039
 Frc consts  --      6.0617                 6.0643                 6.4166
 IR Inten    --      4.0866                 3.5014                 9.7126

                     88                     89                     90
                      A                      A                      A
 Frequencies --   3141.2448              3157.9377              3159.3485
 Red. masses --      1.1037                 1.1053                 1.1057
 Frc consts  --      6.4165                 6.4942                 6.5023
 IR Inten    --      8.2595                 3.6925                 4.3201

                     91                     92                     93
                      A                      A                      A
 Frequencies --   3173.3664              3179.4267              3183.7122
 Red. masses --      1.1105                 1.1111                 1.1108
 Frc consts  --      6.5890                 6.6176                 6.6336
 IR Inten    --      1.4108                 1.1168                 0.7925

                     94                     95                     96
                      A                      A                      A
 Frequencies --   3186.7927              3191.5830              3192.2834
 Red. masses --      1.1079                 1.1117                 1.1114
 Frc consts  --      6.6289                 6.6719                 6.6732
 IR Inten    --      3.2259                 0.4856                 0.2438

                           ! Non-Optimized Parameters !
 Normal termination of Gaussian 16 at Fri Feb  3 15:05:52 2023.
