 Gaussian 16, Revision B.01,
 Gaussian 16:  ES64L-G16RevB.01 20-Dec-2017

 ----------------------------------------------------------------------
 #T wB97XD/def2svpp opt=tight freq int(grid=ultrafine) scf=(verytight,q
 c)
 ----------------------------------------------------------------------
 -------
 comment
 -------
 Symbolic Z-matrix:
 Charge =  1 Multiplicity = 2

 SCF Done:  E(UwB97XD) =  -957.164083187     a.u. after   32 cycles
 SCF Done:  E(UwB97XD) =  -957.172926465     a.u. after   21 cycles
 SCF Done:  E(UwB97XD) =  -957.173742442     a.u. after   16 cycles
 SCF Done:  E(UwB97XD) =  -957.178094571     a.u. after    9 cycles
 SCF Done:  E(UwB97XD) =  -957.180539645     a.u. after   11 cycles
 SCF Done:  E(UwB97XD) =  -957.181081401     a.u. after   10 cycles
 SCF Done:  E(UwB97XD) =  -957.181101776     a.u. after    7 cycles
 SCF Done:  E(UwB97XD) =  -957.181314379     a.u. after    8 cycles
 SCF Done:  E(UwB97XD) =  -957.181478746     a.u. after    7 cycles
 SCF Done:  E(UwB97XD) =  -957.181646054     a.u. after    7 cycles
 SCF Done:  E(UwB97XD) =  -957.185362367     a.u. after    4 cycles
 SCF Done:  E(UwB97XD) =  -957.185371838     a.u. after    3 cycles
 SCF Done:  E(UwB97XD) =  -957.185376297     a.u. after    3 cycles
 SCF Done:  E(UwB97XD) =  -957.185378210     a.u. after    3 cycles
 SCF Done:  E(UwB97XD) =  -957.185378887     a.u. after    2 cycles
 SCF Done:  E(UwB97XD) =  -957.185378944     a.u. after    2 cycles
 SCF Done:  E(UwB97XD) =  -957.185378953     a.u. after    2 cycles
 SCF Done:  E(UwB97XD) =  -957.185378956     a.u. after    2 cycles
 SCF Done:  E(UwB97XD) =  -957.185378956     a.u. after    2 cycles
 Optimization completed.
    -- Stationary point found.
 Normal termination of Gaussian 16 at Mon Jul 10 20:16:28 2023.

 ---------------------------------------------------------------------
 #T Geom=AllCheck Guess=TCheck SCRF=Check GenChk UwB97XD/def2SVPP Freq
 ---------------------------------------------------------------------
 Structure from the checkpoint file:  "25.chk"
 -------
 comment
 -------
 Charge =  1 Multiplicity = 2

                         Standard orientation:
 ---------------------------------------------------------------------
 Center     Atomic      Atomic             Coordinates (Angstroms)
 Number     Number       Type             X           Y           Z
 ---------------------------------------------------------------------
      1          8           0        1.733969   -1.800188    0.187973
      2          6           0        1.394182   -0.667982    0.973225
      3          6           0        0.285915    0.102632    0.233318
      4          6           0        0.111580    1.490631    0.895475
      5          8           0        1.114259    2.350147    0.349366
      6          6           0        0.728556    0.432138   -1.208432
      7          8           0        1.413007   -0.464069   -1.898132
      8          6           0       -1.020122   -0.717624    0.268534
      9          8           0       -1.411465   -0.763297    1.576924
     10         17           0       -2.281788    0.055335   -0.792869
     11          1           0        2.376749   -2.377457    0.627901
     12          1           0        2.278270   -0.014876    1.108590
     13          1           0        1.020418   -0.971335    1.964512
     14          1           0        0.194931    1.430334    1.990987
     15          1           0       -0.865438    1.922736    0.636893
     16          1           0        1.851086    2.521413    0.958985
     17          1           0        1.410754    1.411124   -0.912564
     18          1           0        0.000237    0.965448   -1.853165
     19          1           0        1.763095   -1.183155   -1.267681
     20          1           0       -0.863446   -1.714484   -0.175116
     21          1           0       -2.175090   -1.349963    1.697662
 ---------------------------------------------------------------------

 SCF Done:  E(UwB97XD) =  -957.185378956     a.u. after    1 cycles

 The electronic state is 2-A.
 Alpha  occ. eigenvalues -- -101.80813 -19.51948 -19.48967 -19.46571 -19.43588
 Alpha  occ. eigenvalues --  -10.56939 -10.56567 -10.53513 -10.52988 -10.51972
 Alpha  occ. eigenvalues --   -9.71629  -7.46971  -7.46082  -7.46005  -1.39043
 Alpha  occ. eigenvalues --   -1.33961  -1.32057  -1.31249  -1.11870  -1.06796
 Alpha  occ. eigenvalues --   -0.98791  -0.96660  -0.93418  -0.88783  -0.83723
 Alpha  occ. eigenvalues --   -0.82598  -0.79556  -0.78333  -0.77064  -0.75558
 Alpha  occ. eigenvalues --   -0.73831  -0.72704  -0.69777  -0.69292  -0.67836
 Alpha  occ. eigenvalues --   -0.66843  -0.64427  -0.61878  -0.59460  -0.58631
 Alpha  occ. eigenvalues --   -0.56779  -0.55135  -0.54854  -0.52573  -0.51993
 Alpha virt. eigenvalues --   -0.05027  -0.04585  -0.02924  -0.00926   0.00392
 Alpha virt. eigenvalues --    0.02028   0.03808   0.04580   0.05666   0.05894
 Alpha virt. eigenvalues --    0.06518   0.07592   0.08429   0.10435   0.11321

  Beta  occ. eigenvalues -- -101.80803 -19.50855 -19.48479 -19.46577 -19.43579
  Beta  occ. eigenvalues --  -10.56910 -10.56279 -10.53514 -10.53007 -10.51929
  Beta  occ. eigenvalues --   -9.71618  -7.46965  -7.46046  -7.45998  -1.36772
  Beta  occ. eigenvalues --   -1.32930  -1.31861  -1.31195  -1.11439  -1.06590
  Beta  occ. eigenvalues --   -0.97391  -0.96228  -0.93238  -0.88175  -0.83468
  Beta  occ. eigenvalues --   -0.81352  -0.79359  -0.77228  -0.76444  -0.74136
  Beta  occ. eigenvalues --   -0.72515  -0.71558  -0.69531  -0.67741  -0.66903
  Beta  occ. eigenvalues --   -0.65167  -0.62704  -0.61252  -0.58612  -0.57691
  Beta  occ. eigenvalues --   -0.56171  -0.54855  -0.52676  -0.51949
  Beta virt. eigenvalues --   -0.29147  -0.04825  -0.04504  -0.02812  -0.00811
  Beta virt. eigenvalues --    0.01147   0.02536   0.03916   0.04762   0.05743
  Beta virt. eigenvalues --    0.06335   0.06968   0.07812   0.08675   0.10664

 Mulliken charges and spin densities:
               1          2
     1  O   -0.525886  -0.000698
     2  C    0.057624   0.000293
     3  C   -0.414362   0.032114
     4  C    0.056906  -0.008565
     5  O   -0.450017   0.151129
     6  C   -0.044667   0.184831
     7  O   -0.227721   0.432592
     8  C    0.143404   0.011509
     9  O   -0.416176   0.001821
    10  Cl  -0.098862   0.011299
    11  H    0.383329  -0.000058
    12  H    0.127214  -0.000340
    13  H    0.178601  -0.000018
    14  H    0.185164   0.004548
    15  H    0.186009   0.001204
    16  H    0.383149  -0.002015
    17  H    0.308283   0.155786
    18  H    0.234036   0.035938
    19  H    0.393302  -0.011808
    20  H    0.173419  -0.000898
    21  H    0.367250   0.001334
 Sum of Mulliken charges =   1.00000   1.00000

 Dipole moment (field-independent basis, Debye):
    X=              5.2291    Y=             -0.7282    Z=              2.9412  Tot=              6.0435
  Exact polarizability:  79.027  -4.115  78.430   1.009   7.610  80.166
 Approx polarizability:  83.257  -5.152  87.479   2.621   6.985  91.342
                          Isotropic Fermi Contact Couplings
        Atom                 a.u.       MegaHertz       Gauss      10(-4) cm-1
     1  O(17)             -0.00683       4.13911       1.47694       1.38066
     2  C(13)             -0.00043      -0.48063      -0.17150      -0.16032
     3  C(13)             -0.00422      -4.74447      -1.69295      -1.58259
     4  C(13)             -0.00826      -9.28495      -3.31310      -3.09712
     5  O(17)              0.19716    -119.51513     -42.64597     -39.86596
     6  C(13)             -0.00478      -5.37527      -1.91803      -1.79300

                      1                      2                      3
                      A                      A                      A
 Frequencies --     72.5348               115.1799               136.0101
 Red. masses --      7.8913                 4.6078                 4.9479
 Frc consts  --      0.0245                 0.0360                 0.0539
 IR Inten    --      0.9541                 3.6331                 0.3546

                      4                      5                      6
                      A                      A                      A
 Frequencies --    141.7664               223.1650               250.0174
 Red. masses --      4.9912                 3.4274                 3.4658
 Frc consts  --      0.0591                 0.1006                 0.1276
 IR Inten    --      1.1024                19.3067                 5.1568

                      7                      8                      9
                      A                      A                      A
 Frequencies --    276.1955               324.1455               352.0606
 Red. masses --      2.4255                 4.4495                 1.9849
 Frc consts  --      0.1090                 0.2754                 0.1450
 IR Inten    --      7.2342                49.0135                78.8696

                     10                     11                     12
                      A                      A                      A
 Frequencies --    359.2525               377.6228               406.9913
 Red. masses --      2.7262                 1.7322                 1.6294
 Frc consts  --      0.2073                 0.1455                 0.1590
 IR Inten    --      7.9040                61.5080                87.6985

                     13                     14                     15
                      A                      A                      A
 Frequencies --    417.4036               463.5241               479.4164
 Red. masses --      2.1485                 3.2678                 2.1654
 Frc consts  --      0.2205                 0.4137                 0.2932
 IR Inten    --     77.7906                24.4126                70.7670

                     16                     17                     18
                      A                      A                      A
 Frequencies --    502.7279               627.5695               641.2106
 Red. masses --      2.1447                 4.5775                 3.6893
 Frc consts  --      0.3194                 1.0622                 0.8937
 IR Inten    --      7.1539                49.8122                28.1185

                     19                     20                     21
                      A                      A                      A
 Frequencies --    741.2489               798.3616               833.8514
 Red. masses --      3.9929                 3.5889                 1.4235
 Frc consts  --      1.2926                 1.3477                 0.5832
 IR Inten    --     50.5022                13.5628               202.9552

                     22                     23                     24
                      A                      A                      A
 Frequencies --    877.1682               912.8649               945.1121
 Red. masses --      1.4824                 1.2245                 1.8044
 Frc consts  --      0.6720                 0.6012                 0.9496
 IR Inten    --     49.1041               119.9096                51.6448

                     25                     26                     27
                      A                      A                      A
 Frequencies --    971.6518              1083.5158              1095.4746
 Red. masses --      1.5700                 3.3935                 3.3832
 Frc consts  --      0.8733                 2.3473                 2.3921
 IR Inten    --     52.6344               128.3370                39.5273

                     28                     29                     30
                      A                      A                      A
 Frequencies --   1099.9251              1136.3049              1174.5982
 Red. masses --      1.8420                 1.6860                 2.7385
 Frc consts  --      1.3130                 1.2826                 2.2261
 IR Inten    --     54.8215                84.7088                13.3677

                     31                     32                     33
                      A                      A                      A
 Frequencies --   1206.0675              1209.2387              1228.6908
 Red. masses --      1.7672                 1.2841                 1.7651
 Frc consts  --      1.5145                 1.1063                 1.5700
 IR Inten    --     39.3581               142.3570                92.4678

                     34                     35                     36
                      A                      A                      A
 Frequencies --   1269.4441              1292.8722              1303.5184
 Red. masses --      1.3692                 1.2165                 1.5482
 Frc consts  --      1.3000                 1.1981                 1.5500
 IR Inten    --      6.4635               129.7146                26.9581

                     37                     38                     39
                      A                      A                      A
 Frequencies --   1316.7456              1321.0210              1351.7820
 Red. masses --      1.2452                 1.3013                 1.2366
 Frc consts  --      1.2720                 1.3380                 1.3314
 IR Inten    --     42.8603                29.3274                25.5690

                     40                     41                     42
                      A                      A                      A
 Frequencies --   1400.0507              1419.3700              1448.6989
 Red. masses --      1.2933                 2.4890                 1.5477
 Frc consts  --      1.4936                 2.9543                 1.9138
 IR Inten    --      0.2740                 9.8129                 4.4974

                     43                     44                     45
                      A                      A                      A
 Frequencies --   1467.6983              1501.2222              1515.6452
 Red. masses --      1.6996                 1.0904                 1.1122
 Frc consts  --      2.1572                 1.4479                 1.5053
 IR Inten    --      1.6192                 2.5360                35.9347

                     46                     47                     48
                      A                      A                      A
 Frequencies --   1546.2331              1956.5662              2897.6066
 Red. masses --      1.1575                 1.0621                 1.0704
 Frc consts  --      1.6305                 2.3955                 5.2950
 IR Inten    --    120.2457               355.1554               991.3509

                     49                     50                     51
                      A                      A                      A
 Frequencies --   3034.0200              3052.2050              3104.7197
 Red. masses --      1.0672                 1.0828                 1.0891
 Frc consts  --      5.7878                 5.9433                 6.1853
 IR Inten    --     35.5513                29.9992                 5.6272

                     52                     53                     54
                      A                      A                      A
 Frequencies --   3109.0835              3131.2332              3184.5536
 Red. masses --      1.0624                 1.1039                 1.1137
 Frc consts  --      6.0505                 6.3770                 6.6546
 IR Inten    --      0.4679                 1.8379                 0.1430

                     55                     56                     57
                      A                      A                      A
 Frequencies --   3727.9906              3734.0172              3756.2674
 Red. masses --      1.0677                 1.0666                 1.0673
 Frc consts  --      8.7427                 8.7620                 8.8723
 IR Inten    --    265.9052               142.3934               180.6611

 Optimization completed.
    -- Stationary point found.
 Normal termination of Gaussian 16 at Mon Jul 10 20:20:42 2023.
