 Gaussian 16, Revision B.01,
 Gaussian 16:  ES64L-G16RevB.01 20-Dec-2017

 ----------------------------------------------------------------------
 #T wB97XD/def2svpp opt=tight freq int(grid=ultrafine) scf=(verytight,q
 c)
 ----------------------------------------------------------------------
 -------
 comment
 -------
 Symbolic Z-matrix:
 Charge =  1 Multiplicity = 2

 SCF Done:  E(UwB97XD) =  -556.003590174     a.u. after    8 cycles
 SCF Done:  E(UwB97XD) =  -556.006613312     a.u. after    5 cycles
 SCF Done:  E(UwB97XD) =  -556.006731828     a.u. after    3 cycles
 SCF Done:  E(UwB97XD) =  -556.006741650     a.u. after    3 cycles
 SCF Done:  E(UwB97XD) =  -556.006743241     a.u. after    2 cycles
 SCF Done:  E(UwB97XD) =  -556.006743825     a.u. after    2 cycles
 SCF Done:  E(UwB97XD) =  -556.006743945     a.u. after    2 cycles
 SCF Done:  E(UwB97XD) =  -556.006743951     a.u. after    2 cycles
 SCF Done:  E(UwB97XD) =  -556.006743946     a.u. after    2 cycles
 SCF Done:  E(UwB97XD) =  -556.006743952     a.u. after    2 cycles
 SCF Done:  E(UwB97XD) =  -556.006743952     a.u. after    2 cycles
 SCF Done:  E(UwB97XD) =  -556.006743952     a.u. after    2 cycles
 Optimization completed.
    -- Stationary point found.
 Normal termination of Gaussian 16 at Mon Jul 10 19:22:05 2023.

 ---------------------------------------------------------------------
 #T Geom=AllCheck Guess=TCheck SCRF=Check GenChk UwB97XD/def2SVPP Freq
 ---------------------------------------------------------------------
 Structure from the checkpoint file:  "21.chk"
 -------
 comment
 -------
 Charge =  1 Multiplicity = 2

                         Standard orientation:
 ---------------------------------------------------------------------
 Center     Atomic      Atomic             Coordinates (Angstroms)
 Number     Number       Type             X           Y           Z
 ---------------------------------------------------------------------
      1          6           0       -0.750771   -0.776842    1.275725
      2          6           0       -0.371730   -0.001083    0.000000
      3          6           0       -0.750771   -0.776843   -1.275724
      4          6           0       -0.913937    1.429466   -0.000000
      5         16           0        1.467177    0.149061   -0.000001
      6          1           0       -1.853702   -0.842591    1.286813
      7          1           0       -0.438509   -0.254619    2.194906
      8          1           0       -0.355136   -1.806304    1.279849
      9          1           0       -1.853702   -0.842592   -1.286812
     10          1           0       -0.355136   -1.806305   -1.279847
     11          1           0       -0.438509   -0.254621   -2.194905
     12          1           0       -2.015487    1.373528   -0.000001
     13          1           0       -0.609546    1.990085   -0.899518
     14          1           0       -0.609547    1.990085    0.899516
     15          1           0        1.777697   -1.179830    0.000001
 ---------------------------------------------------------------------

 SCF Done:  E(UwB97XD) =  -556.006743952     a.u. after    1 cycles

 The electronic state is 2-A.
 Alpha  occ. eigenvalues --  -89.32714 -10.56750 -10.48247 -10.48245 -10.47136
 Alpha  occ. eigenvalues --   -8.37793  -6.33619  -6.32780  -6.32341  -1.17646
 Alpha  occ. eigenvalues --   -1.06187  -0.97755  -0.97367  -0.84546  -0.77210
 Alpha  occ. eigenvalues --   -0.74289  -0.73516  -0.70459  -0.68066  -0.65104
 Alpha  occ. eigenvalues --   -0.64093  -0.63265  -0.62498  -0.61803  -0.61060
 Alpha virt. eigenvalues --   -0.13718  -0.09874  -0.02102   0.02191   0.03060
 Alpha virt. eigenvalues --    0.03184   0.03662   0.04210   0.07660   0.08132
 Alpha virt. eigenvalues --    0.08777   0.09210   0.10255   0.10614   0.18171

  Beta  occ. eigenvalues --  -89.32171 -10.56741 -10.48169 -10.48167 -10.47139
  Beta  occ. eigenvalues --   -8.37264  -6.32407  -6.31973  -6.31862  -1.15851
  Beta  occ. eigenvalues --   -1.03886  -0.97367  -0.97272  -0.84088  -0.76688
  Beta  occ. eigenvalues --   -0.73651  -0.72323  -0.69922  -0.66418  -0.64927
  Beta  occ. eigenvalues --   -0.64040  -0.62374  -0.62011  -0.60968
  Beta virt. eigenvalues --   -0.34490  -0.13122  -0.08386  -0.02031   0.02249
  Beta virt. eigenvalues --    0.03168   0.03244   0.03850   0.04243   0.07987
  Beta virt. eigenvalues --    0.08182   0.08895   0.09698   0.10350   0.10617

 Mulliken charges and spin densities:
               1          2
     1  C   -0.266926   0.030183
     2  C   -0.523177  -0.021951
     3  C   -0.266926   0.030183
     4  C   -0.257852   0.000334
     5  S    0.399175   0.964238
     6  H    0.199321   0.013518
     7  H    0.183706  -0.000892
     8  H    0.169914  -0.000657
     9  H    0.199321   0.013518
    10  H    0.169914  -0.000657
    11  H    0.183706  -0.000892
    12  H    0.191644  -0.001811
    13  H    0.178066   0.000193
    14  H    0.178066   0.000193
    15  H    0.262048  -0.025500
 Sum of Mulliken charges =   1.00000   1.00000

 Dipole moment (field-independent basis, Debye):
    X=              1.5035    Y=             -1.1045    Z=              0.0000  Tot=              1.8656
  Exact polarizability:  65.185  -0.122  54.062   0.000  -0.000  50.792
 Approx polarizability:  72.341   0.465  59.066   0.000  -0.000  53.983
                          Isotropic Fermi Contact Couplings
        Atom                 a.u.       MegaHertz       Gauss      10(-4) cm-1
     1  C(13)              0.03230      36.31496      12.95808      12.11337
     2  C(13)             -0.00926     -10.40898      -3.71418      -3.47206
     3  C(13)              0.03230      36.31521      12.95817      12.11345
     4  C(13)             -0.00129      -1.45115      -0.51780      -0.48405
     5  S(33)              0.17674      60.70587      21.66136      20.24930
     6  H(1)               0.00593      26.51577       9.46149       8.84471

                      1                      2                      3
                      A                      A                      A
 Frequencies --    110.9059               211.1502               271.8829
 Red. masses --      2.1034                 1.0516                 1.0525
 Frc consts  --      0.0152                 0.0276                 0.0458
 IR Inten    --      4.0102                 1.5772                 6.9591

                      4                      5                      6
                      A                      A                      A
 Frequencies --    280.1725               284.5838               307.8453
 Red. masses --      1.5946                 1.4515                 1.3281
 Frc consts  --      0.0737                 0.0693                 0.0742
 IR Inten    --      0.9766                 0.5839                 4.6940

                      7                      8                      9
                      A                      A                      A
 Frequencies --    355.7697               387.1450               395.5698
 Red. masses --      4.0317                 2.1121                 2.3636
 Frc consts  --      0.3007                 0.1865                 0.2179
 IR Inten    --      1.4061                 1.5331                 2.3697

                     10                     11                     12
                      A                      A                      A
 Frequencies --    518.6899               763.3112               855.8238
 Red. masses --      2.8526                 3.7839                 1.1327
 Frc consts  --      0.4522                 1.2990                 0.4888
 IR Inten    --      1.4674                 0.6956                11.1346

                     13                     14                     15
                      A                      A                      A
 Frequencies --    944.5357               951.6440               981.1285
 Red. masses --      1.4576                 1.5794                 1.5626
 Frc consts  --      0.7662                 0.8427                 0.8862
 IR Inten    --      0.8714                 1.0562                 3.1821

                     16                     17                     18
                      A                      A                      A
 Frequencies --    990.8568              1064.7637              1164.6470
 Red. masses --      1.2943                 1.3535                 1.7210
 Frc consts  --      0.7487                 0.9041                 1.3754
 IR Inten    --      0.8971                 2.9975                52.3562

                     19                     20                     21
                      A                      A                      A
 Frequencies --   1211.8337              1262.8192              1396.5767
 Red. masses --      2.2839                 2.7947                 1.1702
 Frc consts  --      1.9762                 2.6259                 1.3448
 IR Inten    --      0.8391                12.0292                 9.2089

                     22                     23                     24
                      A                      A                      A
 Frequencies --   1405.0973              1436.8769              1455.0676
 Red. masses --      1.1861                 1.2013                 1.0422
 Frc consts  --      1.3797                 1.4613                 1.3001
 IR Inten    --     17.3662                 5.3451                 3.0450

                     25                     26                     27
                      A                      A                      A
 Frequencies --   1471.6523              1472.5214              1477.9668
 Red. masses --      1.0490                 1.0498                 1.0467
 Frc consts  --      1.3385                 1.3412                 1.3471
 IR Inten    --      2.1881                 0.9092                30.6571

                     28                     29                     30
                      A                      A                      A
 Frequencies --   1490.4993              1507.2916              2617.1524
 Red. masses --      1.0416                 1.0568                 1.0387
 Frc consts  --      1.3634                 1.4147                 4.1917
 IR Inten    --     26.6090                23.9134                18.9857

                     31                     32                     33
                      A                      A                      A
 Frequencies --   3037.2897              3038.9957              3049.3906
 Red. masses --      1.0364                 1.0368                 1.0377
 Frc consts  --      5.6331                 5.6416                 5.6854
 IR Inten    --      2.3936                 0.0422                 0.2348

                     34                     35                     36
                      A                      A                      A
 Frequencies --   3137.8358              3138.8520              3153.2916
 Red. masses --      1.1028                 1.1033                 1.1053
 Frc consts  --      6.3976                 6.4046                 6.4753
 IR Inten    --      3.6556                13.2285                 1.3581

                     37                     38                     39
                      A                      A                      A
 Frequencies --   3154.9008              3157.1052              3157.1506
 Red. masses --      1.1084                 1.1091                 1.1087
 Frc consts  --      6.5000                 6.5136                 6.5111
 IR Inten    --      0.1998                 1.9461                 0.4132

 Optimization completed.
    -- Stationary point found.
 Normal termination of Gaussian 16 at Mon Jul 10 19:23:11 2023.
