 Gaussian 16, Revision B.01,
 Gaussian 16:  ES64L-G16RevB.01 20-Dec-2017

 ----------------------------------------------------------------------
 #T wB97XD/def2svpp opt=tight freq int(grid=ultrafine) scf=(verytight,q
 c) Volume=tight
 ----------------------------------------------------------------------
 -------
 Monomer
 -------
 Symbolic Z-matrix:
 Charge =  0 Multiplicity = 1

 SCF Done:  E(RwB97XD) =  -595.603822295     a.u. after    7 cycles
 SCF Done:  E(RwB97XD) =  -595.606467053     a.u. after    7 cycles
 SCF Done:  E(RwB97XD) =  -595.606616613     a.u. after    5 cycles
 SCF Done:  E(RwB97XD) =  -595.606649586     a.u. after    4 cycles
 SCF Done:  E(RwB97XD) =  -595.606651896     a.u. after    3 cycles
 SCF Done:  E(RwB97XD) =  -595.606652439     a.u. after    2 cycles
 SCF Done:  E(RwB97XD) =  -595.606652473     a.u. after    2 cycles
 SCF Done:  E(RwB97XD) =  -595.606652480     a.u. after    2 cycles
 SCF Done:  E(RwB97XD) =  -595.606652480     a.u. after    2 cycles
 SCF Done:  E(RwB97XD) =  -595.606652480     a.u. after    2 cycles
 SCF Done:  E(RwB97XD) =  -595.606652480     a.u. after    2 cycles
 Optimization completed.
    -- Stationary point found.

 1\1\GINC-C041\FOpt\RwB97XD\def2SVPP\C5H12S1\PETERCHAO1\06-Feb-2023\0\\
 #T wB97XD/def2svpp opt=tight freq int(grid=ultrafine) scf=(verytight,q
 c) Volume=tight\\Monomer\\0,1\C,-2.2279076108,0.5643371012,-0.01095418
 35\C,-1.2037122459,-0.3395030838,-0.6895435306\C,0.1731651873,-0.46086
 72788,-0.0059718278\C,0.0422170613,-0.9025077815,1.4561536493\C,1.0380
 227032,-1.4629409934,-0.7763334821\S,1.0339220602,1.1788436105,0.04999
 98182\H,-2.5353871012,0.1700949525,0.9726219139\H,-3.1363979183,0.6458
 325926,-0.6315402371\H,-1.820246239,1.5782466848,0.1386278198\H,-1.041

 Normal termination of Gaussian 16 at Mon Feb  6 10:19:16 2023.

 ---------------------------------------------------------------------
 #T Geom=AllCheck Guess=TCheck SCRF=Check GenChk RwB97XD/def2SVPP Freq
 ---------------------------------------------------------------------
 Structure from the checkpoint file:  "33.chk"
 -------
 Monomer
 -------
 Charge =  0 Multiplicity = 1

                         Standard orientation:
 ---------------------------------------------------------------------
 Center     Atomic      Atomic             Coordinates (Angstroms)
 Number     Number       Type             X           Y           Z
 ---------------------------------------------------------------------
      1          6           0       -2.247896    0.380954   -0.034361
      2          6           0       -1.128008   -0.408097   -0.704909
      3          6           0        0.245372   -0.392935   -0.003918
      4          6           0        0.142056   -0.856653    1.453578
      5          6           0        1.217997   -1.295330   -0.768949
      6         16           0        0.932730    1.325848    0.073618
      7          1           0       -2.525656   -0.050097    0.942592
      8          1           0       -3.152097    0.373635   -0.666413
      9          1           0       -1.948232    1.430132    0.126892
     10          1           0       -0.989009   -0.040088   -1.738593
     11          1           0       -1.435249   -1.467926   -0.800272
     12          1           0       -0.322287   -1.858679    1.492148
     13          1           0       -0.471478   -0.172279    2.062966
     14          1           0        1.140950   -0.923364    1.917668
     15          1           0        0.853481   -2.339503   -0.764258
     16          1           0        2.221349   -1.274158   -0.312269
     17          1           0        1.313551   -0.977520   -1.822247
     18          1           0        1.013878    1.518637   -1.264750
 ---------------------------------------------------------------------

 SCF Done:  E(RwB97XD) =  -595.606652480     a.u. after    1 cycles

 The electronic state is 1-A.
 Alpha  occ. eigenvalues --  -88.99135 -10.34016 -10.29621 -10.29068 -10.28891
 Alpha  occ. eigenvalues --  -10.27952  -8.04439  -5.99905  -5.99521  -5.98827
 Alpha  occ. eigenvalues --   -0.93321  -0.83442  -0.79659  -0.78361  -0.71594
 Alpha  occ. eigenvalues --   -0.62529  -0.55472  -0.54640  -0.53149  -0.50761
 Alpha  occ. eigenvalues --   -0.48746  -0.46963  -0.45026  -0.44396  -0.43434
 Alpha  occ. eigenvalues --   -0.41648  -0.40992  -0.38224  -0.30993
 Alpha virt. eigenvalues --    0.10021   0.13406   0.15235   0.17184   0.17965
 Alpha virt. eigenvalues --    0.19794   0.19904   0.21448   0.22583   0.22773
 Alpha virt. eigenvalues --    0.24403   0.24939   0.25758   0.28505   0.29594

 Mulliken charges:
               1
     1  C   -0.312038
     2  C   -0.147738
     3  C   -0.357337
     4  C   -0.269177
     5  C   -0.223893
     6  S   -0.151941
     7  H    0.118071
     8  H    0.120666
     9  H    0.127628
    10  H    0.097865
    11  H    0.101979
    12  H    0.122585
    13  H    0.139979
    14  H    0.132326
    15  H    0.113983
    16  H    0.129555
    17  H    0.113295
    18  H    0.144193
 Sum of Mulliken charges =  -0.00000

 Dipole moment (field-independent basis, Debye):
    X=             -0.5400    Y=             -1.2946    Z=             -0.8071  Tot=              1.6183
  Exact polarizability:  69.417   1.984  71.378  -0.961  -1.461  65.849
 Approx polarizability:  70.217   4.693  78.851  -0.557  -1.466  73.563
   1 Symmetry operations used in ECPInt.
 ECPInt:  NShTT=    1953 NPrTT=    8125 LenC2=    1948 LenP2D=    6583.
 LDataN:  DoStor=T MaxTD1= 6 Len=  172
 Calling FoFJK, ICntrl=    100127 FMM=F ISym2X=0 I1Cent= 0 IOpClX= 0 NMat=1 NMatS=1 NMatT=0.
 Full mass-weighted force constant matrix:
 Low frequencies ---   -1.7438   -0.0047   -0.0029   -0.0023    6.6773   10.1826
 Low frequencies ---  113.6079  218.9398  233.0254
 Diagonal vibrational polarizability:

                      1                      2                      3
                      A                      A                      A
 Frequencies --    113.6064               218.9358               233.0232
 Red. masses --      1.8278                 1.1724                 1.8631
 Frc consts  --      0.0139                 0.0331                 0.0596
 IR Inten    --      0.0610                 1.9316                 7.3234

                      4                      5                      6
                      A                      A                      A
 Frequencies --    263.5723               276.6416               305.2379
 Red. masses --      1.1886                 1.2108                 1.2105
 Frc consts  --      0.0486                 0.0546                 0.0665
 IR Inten    --      9.5765                 1.9374                 0.4750

                      7                      8                      9
                      A                      A                      A
 Frequencies --    312.7631               328.9613               380.6770
 Red. masses --      2.0857                 2.3135                 2.8557
 Frc consts  --      0.1202                 0.1475                 0.2438
 IR Inten    --      1.4133                 1.0297                 0.3336

                     10                     11                     12
                      A                      A                      A
 Frequencies --    405.8510               497.1534               594.2318
 Red. masses --      2.3188                 2.7855                 3.4494
 Frc consts  --      0.2250                 0.4056                 0.7176
 IR Inten    --      0.6230                 0.2074                 3.1027

                     13                     14                     15
                      A                      A                      A
 Frequencies --    796.5124               829.9159               895.1248
 Red. masses --      1.3713                 1.8004                 1.2020
 Frc consts  --      0.5126                 0.7306                 0.5674
 IR Inten    --      2.0442                 5.8436                 3.8463

                     16                     17                     18
                      A                      A                      A
 Frequencies --    951.9837               967.1012              1022.4667
 Red. masses --      1.7422                 1.4068                 1.2644
 Frc consts  --      0.9303                 0.7752                 0.7788
 IR Inten    --      1.2507                 0.6646                 3.0172

                     19                     20                     21
                      A                      A                      A
 Frequencies --   1040.5603              1088.0701              1104.5635
 Red. masses --      1.5034                 1.4362                 2.1190
 Frc consts  --      0.9591                 1.0018                 1.5232
 IR Inten    --      4.1316                 1.6492                 1.2619

                     22                     23                     24
                      A                      A                      A
 Frequencies --   1204.5481              1225.4324              1268.9354
 Red. masses --      2.1051                 2.3193                 2.4485
 Frc consts  --      1.7995                 2.0521                 2.3229
 IR Inten    --     20.6148                 7.8131                 2.3891

                     25                     26                     27
                      A                      A                      A
 Frequencies --   1329.7711              1384.9507              1410.4506
 Red. masses --      1.2487                 1.4058                 1.3097
 Frc consts  --      1.3010                 1.5887                 1.5351
 IR Inten    --      4.9201                 2.3410                11.7045

                     28                     29                     30
                      A                      A                      A
 Frequencies --   1424.3709              1430.1947              1472.1133
 Red. masses --      1.2702                 1.3326                 1.0680
 Frc consts  --      1.5183                 1.6059                 1.3636
 IR Inten    --      1.9960                11.2642                 0.5930

                     31                     32                     33
                      A                      A                      A
 Frequencies --   1479.0954              1485.1231              1493.2788
 Red. masses --      1.0425                 1.0642                 1.0590
 Frc consts  --      1.3437                 1.3829                 1.3914
 IR Inten    --      0.5091                 6.9100                 6.1153

                     34                     35                     36
                      A                      A                      A
 Frequencies --   1495.7869              1502.5694              1510.8591
 Red. masses --      1.0430                 1.0538                 1.0530
 Frc consts  --      1.3749                 1.4018                 1.4162
 IR Inten    --     14.6553                13.5222                 1.4453

                     37                     38                     39
                      A                      A                      A
 Frequencies --   2684.3891              3020.3595              3025.2681
 Red. masses --      1.0383                 1.0567                 1.0441
 Frc consts  --      4.4083                 5.6798                 5.6302
 IR Inten    --     10.0374                 8.2340                45.9709

                     40                     41                     42
                      A                      A                      A
 Frequencies --   3034.1899              3040.9501              3073.4329
 Red. masses --      1.0385                 1.0384                 1.1033
 Frc consts  --      5.6330                 5.6575                 6.1402
 IR Inten    --     17.2782                20.3710                15.9538

                     43                     44                     45
                      A                      A                      A
 Frequencies --   3112.5169              3125.2473              3129.7969
 Red. masses --      1.1036                 1.1040                 1.1046
 Frc consts  --      6.2994                 6.3529                 6.3752
 IR Inten    --     19.8289                12.2994                24.5701

                     46                     47                     48
                      A                      A                      A
 Frequencies --   3136.8502              3139.0052              3142.5723
 Red. masses --      1.1048                 1.1048                 1.1049
 Frc consts  --      6.4051                 6.4140                 6.4291
 IR Inten    --     17.2348                 9.4999                14.8729

 Optimization completed.
    -- Stationary point found.

 1\1\GINC-C041\Freq\RwB97XD\def2SVPP\C5H12S1\PETERCHAO1\06-Feb-2023\0\\
 #T Geom=AllCheck Guess=TCheck SCRF=Check GenChk RwB97XD/def2SVPP Freq\
 \Monomer\\0,1\C,-2.2279076108,0.5643371012,-0.0109541835\C,-1.20371224
 59,-0.3395030838,-0.6895435306\C,0.1731651873,-0.4608672788,-0.0059718
 278\C,0.0422170613,-0.9025077815,1.4561536493\C,1.0380227032,-1.462940
 9934,-0.7763334821\S,1.0339220602,1.1788436105,0.0499998182\H,-2.53538
 71012,0.1700949525,0.9726219139\H,-3.1363979183,0.6458325926,-0.631540
 2371\H,-1.820246239,1.5782466848,0.1386278198\H,-1.041460237,0.0059029

 Normal termination of Gaussian 16 at Mon Feb  6 10:20:32 2023.
