 Gaussian 16, Revision B.01,
 Gaussian 16:  ES64L-G16RevB.01 20-Dec-2017

 ----------------------------------------------------------------------
 #T wB97XD/def2svpp opt=tight freq int(grid=ultrafine) scf=(verytight,q
 c)
 ----------------------------------------------------------------------
 -------
 comment
 -------
 Symbolic Z-matrix:
 Charge =  1 Multiplicity = 2

 SCF Done:  E(UwB97XD) =  -1037.51366619     a.u. after    7 cycles
 SCF Done:  E(UwB97XD) =  -1037.52769320     a.u. after   13 cycles
 SCF Done:  E(UwB97XD) =  -1037.53132967     a.u. after   11 cycles
 SCF Done:  E(UwB97XD) =  -1037.53217680     a.u. after    5 cycles
 SCF Done:  E(UwB97XD) =  -1037.53223680     a.u. after    3 cycles
 SCF Done:  E(UwB97XD) =  -1037.53223851     a.u. after    2 cycles
 SCF Done:  E(UwB97XD) =  -1037.53223854     a.u. after    2 cycles
 Optimization completed.
    -- Stationary point found.
 Normal termination of Gaussian 16 at Mon Jul 10 19:20:35 2023.

 ---------------------------------------------------------------------
 #T Geom=AllCheck Guess=TCheck SCRF=Check GenChk UwB97XD/def2SVPP Freq
 ---------------------------------------------------------------------
 Structure from the checkpoint file:  "17.chk"
 -------
 comment
 -------
 Charge =  1 Multiplicity = 2

                         Standard orientation:
 ---------------------------------------------------------------------
 Center     Atomic      Atomic             Coordinates (Angstroms)
 Number     Number       Type             X           Y           Z
 ---------------------------------------------------------------------
      1          6           0        1.289384   -0.000001    1.290079
      2          6           0        0.524094   -0.000000    0.000002
      3          6           0        1.289392   -0.000000   -1.290072
      4         17           0       -0.812592   -1.270002   -0.000003
      5         17           0       -0.812591    1.270002   -0.000002
      6          1           0        1.937246   -0.893348    1.314412
      7          1           0        0.630936   -0.000001    2.171306
      8          1           0        1.937246    0.893346    1.314412
      9          1           0        1.937253   -0.893347   -1.314401
     10          1           0        1.937254    0.893346   -1.314401
     11          1           0        0.630948    0.000000   -2.171302
 ---------------------------------------------------------------------

 SCF Done:  E(UwB97XD) =  -1037.53223854     a.u. after    1 cycles

 The electronic state is 2-A.
 Alpha  occ. eigenvalues -- -101.96518-101.96513 -10.66348 -10.50173 -10.50171
 Alpha  occ. eigenvalues --   -9.87106  -9.87105  -7.62660  -7.62659  -7.61992
 Alpha  occ. eigenvalues --   -7.61991  -7.61161  -7.61160  -1.27706  -1.16906
 Alpha  occ. eigenvalues --   -1.08972  -1.01065  -0.88826  -0.78974  -0.78802
 Alpha  occ. eigenvalues --   -0.76064  -0.72829  -0.69096  -0.66751  -0.66490
 Alpha  occ. eigenvalues --   -0.66460  -0.64359  -0.63922  -0.63195
 Alpha virt. eigenvalues --   -0.16242  -0.15864  -0.02697   0.02581   0.02747
 Alpha virt. eigenvalues --    0.03012   0.05317   0.06399   0.06940   0.09583
 Alpha virt. eigenvalues --    0.23457   0.28020   0.28471   0.30400   0.32026

  Beta  occ. eigenvalues -- -101.96119-101.96115 -10.66362 -10.50175 -10.50173
  Beta  occ. eigenvalues --   -9.86679  -9.86679  -7.61873  -7.61872  -7.61135
  Beta  occ. eigenvalues --   -7.61135  -7.60863  -7.60863  -1.26096  -1.14063
  Beta  occ. eigenvalues --   -1.08278  -1.01072  -0.87872  -0.78450  -0.77485
  Beta  occ. eigenvalues --   -0.75890  -0.68996  -0.68857  -0.66472  -0.66373
  Beta  occ. eigenvalues --   -0.64923  -0.63709  -0.63126
  Beta virt. eigenvalues --   -0.37611  -0.15563  -0.15358  -0.02669   0.02643
  Beta virt. eigenvalues --    0.02768   0.03008   0.05317   0.06401   0.07079
  Beta virt. eigenvalues --    0.09649   0.23857   0.28603   0.28622   0.30620

 Mulliken charges and spin densities:
               1          2
     1  C   -0.200607   0.000973
     2  C   -0.354138  -0.025270
     3  C   -0.200607   0.000973
     4  Cl   0.268586   0.514195
     5  Cl   0.268586   0.514195
     6  H    0.206527  -0.001101
     7  H    0.196036  -0.000329
     8  H    0.206527  -0.001101
     9  H    0.206527  -0.001101
    10  H    0.206527  -0.001101
    11  H    0.196036  -0.000329
 Sum of Mulliken charges =   1.00000   1.00000

 Dipole moment (field-independent basis, Debye):
    X=              1.8509    Y=             -0.0000    Z=              0.0000  Tot=              1.8509
  Exact polarizability:  53.111   0.000  70.209   0.000   0.000  42.871
 Approx polarizability:  60.760   0.000  90.168   0.000   0.000  45.228
                          Isotropic Fermi Contact Couplings
        Atom                 a.u.       MegaHertz       Gauss      10(-4) cm-1
     1  C(13)             -0.00154      -1.72677      -0.61616      -0.57599
     2  C(13)             -0.00845      -9.49775      -3.38903      -3.16811
     3  C(13)             -0.00154      -1.72677      -0.61616      -0.57599
     4  Cl(35)             0.11989      52.56729      18.75731      17.53456
     5  Cl(35)             0.11989      52.56729      18.75732      17.53456
     6  H(1)              -0.00041      -1.81273      -0.64683      -0.60466

                      1                      2                      3
                      A                      A                      A
 Frequencies --    240.0415               270.2307               282.1793
 Red. masses --      1.5153                 1.6106                 7.6217
 Frc consts  --      0.0514                 0.0693                 0.3576
 IR Inten    --      0.0000                 0.0000                 3.7601

                      4                      5                      6
                      A                      A                      A
 Frequencies --    283.6199               343.4701               378.4180
 Red. masses --      1.1537                 3.1919                 3.6596
 Frc consts  --      0.0547                 0.2219                 0.3088
 IR Inten    --      0.4484                 1.3451                 4.5599

                      7                      8                      9
                      A                      A                      A
 Frequencies --    378.7174               520.2611               572.7968
 Red. masses --      3.3803                 3.4761                 4.8490
 Frc consts  --      0.2856                 0.5544                 0.9374
 IR Inten    --      0.2079                 5.1050                33.7606

                     10                     11                     12
                      A                      A                      A
 Frequencies --    932.9835               959.7383              1002.8006
 Red. masses --      2.8037                 1.4041                 1.2758
 Frc consts  --      1.4379                 0.7620                 0.7559
 IR Inten    --     30.3959                 0.0977                 0.0000

                     13                     14                     15
                      A                      A                      A
 Frequencies --   1089.3252              1181.3580              1267.7601
 Red. masses --      1.5913                 1.8469                 3.1305
 Frc consts  --      1.1125                 1.5187                 2.9644
 IR Inten    --      3.0225                85.8019                12.4764

                     16                     17                     18
                      A                      A                      A
 Frequencies --   1416.5996              1423.7644              1452.0852
 Red. masses --      1.3437                 1.1919                 1.0403
 Frc consts  --      1.5887                 1.4235                 1.2924
 IR Inten    --     32.1241                18.7710                14.7656

                     19                     20                     21
                      A                      A                      A
 Frequencies --   1453.8134              1478.4888              1480.7971
 Red. masses --      1.0410                 1.0703                 1.0408
 Frc consts  --      1.2963                 1.3785                 1.3447
 IR Inten    --      0.0000                 6.3499                29.6832

                     22                     23                     24
                      A                      A                      A
 Frequencies --   3049.3284              3053.9356              3149.6072
 Red. masses --      1.0371                 1.0376                 1.1058
 Frc consts  --      5.6818                 5.7016                 6.4632
 IR Inten    --      8.9388                 5.6514                 0.0000

                     25                     26                     27
                      A                      A                      A
 Frequencies --   3155.1135              3182.6598              3183.4366
 Red. masses --      1.1049                 1.1077                 1.1090
 Frc consts  --      6.4807                 6.6106                 6.6219
 IR Inten    --     12.4821                 0.9350                 8.8213

 Optimization completed.
    -- Stationary point found.
 Normal termination of Gaussian 16 at Mon Jul 10 19:21:16 2023.
