 Gaussian 16, Revision B.01,
 Gaussian 16:  ES64L-G16RevB.01 20-Dec-2017

 ----------------------------------------------------------------------
 #T wB97XD/def2svpp opt=tight freq int(grid=ultrafine) scf=(verytight,q
 c)
 ----------------------------------------------------------------------
 --------------
 Comment gs min
 --------------
 Symbolic Z-matrix:
 Charge =  0 Multiplicity = 1

 SCF Done:  E(RwB97XD) =  -587.930315752     a.u. after    8 cycles
 SCF Done:  E(RwB97XD) =  -587.939108793     a.u. after   10 cycles
 SCF Done:  E(RwB97XD) =  -587.922179282     a.u. after   27 cycles
 SCF Done:  E(RwB97XD) =  -587.940449675     a.u. after   13 cycles
 SCF Done:  E(RwB97XD) =  -587.939889922     a.u. after   11 cycles
 SCF Done:  E(RwB97XD) =  -587.941005170     a.u. after    8 cycles
 SCF Done:  E(RwB97XD) =  -587.941484753     a.u. after   10 cycles
 SCF Done:  E(RwB97XD) =  -587.941567200     a.u. after   13 cycles
 SCF Done:  E(RwB97XD) =  -587.941855211     a.u. after    7 cycles
 SCF Done:  E(RwB97XD) =  -587.942444549     a.u. after   13 cycles
 SCF Done:  E(RwB97XD) =  -587.949010303     a.u. after    6 cycles
 SCF Done:  E(RwB97XD) =  -587.949061951     a.u. after    7 cycles
 SCF Done:  E(RwB97XD) =  -587.949068711     a.u. after    4 cycles
 SCF Done:  E(RwB97XD) =  -587.949069342     a.u. after    3 cycles
 SCF Done:  E(RwB97XD) =  -587.949069352     a.u. after    2 cycles
 SCF Done:  E(RwB97XD) =  -587.949069354     a.u. after    2 cycles
 SCF Done:  E(RwB97XD) =  -587.949069350     a.u. after    2 cycles
 SCF Done:  E(RwB97XD) =  -587.949069361     a.u. after    2 cycles
 SCF Done:  E(RwB97XD) =  -587.949069348     a.u. after    2 cycles
 Optimization completed.
    -- Stationary point found.
 Normal termination of Gaussian 16 at Thu Aug  4 16:37:37 2022.

 ---------------------------------------------------------------------
 #T Geom=AllCheck Guess=TCheck SCRF=Check GenChk RwB97XD/def2SVPP Freq
 ---------------------------------------------------------------------
 Structure from the checkpoint file:  "/scratch/user/peterchao1/peterchao1/6097812_1659647584000000577401975/Gau-153065.chk"
 --------------
 Comment gs min
 --------------
 Charge =  0 Multiplicity = 1

                         Standard orientation:
 ---------------------------------------------------------------------
 Center     Atomic      Atomic             Coordinates (Angstroms)
 Number     Number       Type             X           Y           Z
 ---------------------------------------------------------------------
      1          8           0       -1.812508   -0.994590    1.091119
      2          6           0       -0.499286   -1.301166    0.696772
      3          6           0        0.118596   -0.304470   -0.296344
      4          6           0        1.489500   -0.802856   -0.781775
      5          8           0        2.432995   -0.884781    0.245083
      6          6           0       -0.806132   -0.023605   -1.500013
      7          8           0       -2.022240    0.548321   -1.155294
      8          7           0        0.343112    1.021272    0.409433
      9          8           0       -0.337493    1.276907    1.380136
     10          8           0        1.186718    1.760197   -0.045661
     11          1           0       -1.757173   -0.190567    1.634456
     12          1           0       -0.546936   -2.276810    0.186824
     13          1           0        0.177088   -1.412480    1.563654
     14          1           0        1.838113   -0.164735   -1.613329
     15          1           0        1.352081   -1.822361   -1.178468
     16          1           0        2.789493    0.001130    0.405416
     17          1           0       -0.921493   -0.991707   -2.034562
     18          1           0       -0.297300    0.675178   -2.184660
     19          1           0       -2.431512   -0.022403   -0.480266
 ---------------------------------------------------------------------

 SCF Done:  E(RwB97XD) =  -587.949069348     a.u. after    1 cycles

 The electronic state is 1-A.
 Alpha  occ. eigenvalues --  -19.31382 -19.31102 -19.28016 -19.27831 -19.25807
 Alpha  occ. eigenvalues --  -14.70017 -10.37609 -10.37376 -10.37074 -10.36999
 Alpha  occ. eigenvalues --   -1.35869  -1.18200  -1.15131  -1.14351  -1.12583
 Alpha  occ. eigenvalues --   -0.95738  -0.81116  -0.80015  -0.78546  -0.69512
 Alpha  occ. eigenvalues --   -0.66837  -0.65887  -0.64367  -0.62709  -0.61264
 Alpha  occ. eigenvalues --   -0.57908  -0.57117  -0.54905  -0.54329  -0.53108
 Alpha  occ. eigenvalues --   -0.51148  -0.46356  -0.45478  -0.44483  -0.42181
 Alpha  occ. eigenvalues --   -0.41167  -0.40709  -0.39012  -0.37539  -0.36683
 Alpha virt. eigenvalues --   -0.01139   0.11960   0.13043   0.14238   0.15560
 Alpha virt. eigenvalues --    0.18084   0.19795   0.20114   0.20858   0.21858
 Alpha virt. eigenvalues --    0.23800   0.25368   0.27659   0.30024   0.30999

 Mulliken charges:
               1
     1  O   -0.498791
     2  C    0.075555
     3  C   -0.300509
     4  C    0.066521
     5  O   -0.483551
     6  C    0.114711
     7  O   -0.484330
     8  N    0.267334
     9  O   -0.255941
    10  O   -0.247987
    11  H    0.344968
    12  H    0.120155
    13  H    0.134829
    14  H    0.129372
    15  H    0.123141
    16  H    0.334552
    17  H    0.109012
    18  H    0.124063
    19  H    0.326894
 Sum of Mulliken charges =  -0.00000

 Dipole moment (field-independent basis, Debye):
    X=              1.0960    Y=             -2.0685    Z=             -0.9129  Tot=              2.5126
  Exact polarizability:  65.693   2.620  59.893  -5.319   1.186  62.145
 Approx polarizability:  76.372   5.002  68.183 -11.835  -0.023  73.043
   1 Symmetry operations used in ECPInt.
 ECPInt:  NShTT=    3081 NPrTT=   12403 LenC2=    3044 LenP2D=    9522.
 LDataN:  DoStor=T MaxTD1= 6 Len=  172
 Calling FoFJK, ICntrl=    100127 FMM=F ISym2X=0 I1Cent= 0 IOpClX= 0 NMat=1 NMatS=1 NMatT=0.
 Full mass-weighted force constant matrix:
 Low frequencies ---   -5.1401    0.0008    0.0010    0.0011    4.4343    8.6898
 Low frequencies ---   56.9406  114.3047  122.0692
 Diagonal vibrational polarizability:

                      1                      2                      3
                      A                      A                      A
 Frequencies --     56.9067               114.2751               122.0367
 Red. masses --     12.4535                 4.3814                 4.4968
 Frc consts  --      0.0238                 0.0337                 0.0395
 IR Inten    --      0.7890                 1.1039                 9.0320

                      4                      5                      6
                      A                      A                      A
 Frequencies --    178.5944               203.5038               240.5863
 Red. masses --      4.5923                 4.5412                 3.2568
 Frc consts  --      0.0863                 0.1108                 0.1111
 IR Inten    --      5.7956                 7.6488                 3.6470

                      7                      8                      9
                      A                      A                      A
 Frequencies --    269.9915               326.7753               364.4119
 Red. masses --      4.8328                 2.9676                 2.3694
 Frc consts  --      0.2076                 0.1867                 0.1854
 IR Inten    --      3.1004                 9.9253                 3.8473

                     10                     11                     12
                      A                      A                      A
 Frequencies --    392.5632               417.9884               457.3226
 Red. masses --      4.1053                 6.6824                 1.0954
 Frc consts  --      0.3727                 0.6879                 0.1350
 IR Inten    --      8.9057                 4.5780               147.4523

                     13                     14                     15
                      A                      A                      A
 Frequencies --    489.7618               520.4395               588.2044
 Red. masses --      2.9063                 1.5799                 3.3802
 Frc consts  --      0.4107                 0.2521                 0.6891
 IR Inten    --     31.9365               242.8207                31.8199

                     16                     17                     18
                      A                      A                      A
 Frequencies --    675.6954               744.1099               791.5766
 Red. masses --      4.0733                 1.2125                 4.2970
 Frc consts  --      1.0957                 0.3955                 1.5864
 IR Inten    --     11.5320               135.0204                29.8457

                     19                     20                     21
                      A                      A                      A
 Frequencies --    858.4576               919.2321               940.6234
 Red. masses --      2.6629                 5.2636                 1.6189
 Frc consts  --      1.1562                 2.6205                 0.8439
 IR Inten    --      3.8168                24.0837                10.7325

                     22                     23                     24
                      A                      A                      A
 Frequencies --    987.1660              1112.0883              1122.0460
 Red. masses --      1.5362                 4.2218                 2.3348
 Frc consts  --      0.8820                 3.0763                 1.7319
 IR Inten    --      7.7282                49.8883                68.8879

                     25                     26                     27
                      A                      A                      A
 Frequencies --   1142.4290              1177.2254              1196.4155
 Red. masses --      4.4180                 2.7111                 3.7472
 Frc consts  --      3.3973                 2.2137                 3.1602
 IR Inten    --     16.9314               107.3587               104.8806

                     28                     29                     30
                      A                      A                      A
 Frequencies --   1198.3544              1248.9373              1282.2190
 Red. masses --      1.9720                 1.1097                 1.5896
 Frc consts  --      1.6685                 1.0199                 1.5398
 IR Inten    --     22.2243                 2.3254                28.7919

                     31                     32                     33
                      A                      A                      A
 Frequencies --   1336.4869              1388.9500              1419.0750
 Red. masses --      1.6459                 1.2659                 1.3238
 Frc consts  --      1.7321                 1.4389                 1.5707
 IR Inten    --     24.7992                21.1019                28.0022

                     34                     35                     36
                      A                      A                      A
 Frequencies --   1426.1082              1431.1048              1455.9365
 Red. masses --      1.2873                 1.3093                 1.3064
 Frc consts  --      1.5425                 1.5799                 1.6316
 IR Inten    --     26.2161                21.7515                23.9859

                     37                     38                     39
                      A                      A                      A
 Frequencies --   1477.0632              1495.1881              1501.9470
 Red. masses --      1.3176                 1.1743                 1.1023
 Frc consts  --      1.6937                 1.5467                 1.4651
 IR Inten    --     84.2844                14.1719                 8.6863

                     40                     41                     42
                      A                      A                      A
 Frequencies --   1512.2672              1525.9948              1755.2283
 Red. masses --      1.2872                 2.5117                12.2984
 Frc consts  --      1.7345                 3.4461                22.3237
 IR Inten    --     29.3279                80.0022               259.8713

                     43                     44                     45
                      A                      A                      A
 Frequencies --   2986.4787              3057.4046              3059.4370
 Red. masses --      1.0706                 1.0629                 1.0639
 Frc consts  --      5.6262                 5.8537                 5.8674
 IR Inten    --     44.9388                27.7463                18.0563

                     46                     47                     48
                      A                      A                      A
 Frequencies --   3111.1077              3124.6887              3132.8674
 Red. masses --      1.0974                 1.1081                 1.1067
 Frc consts  --      6.2579                 6.3743                 6.3997
 IR Inten    --     12.1818                 9.8252                19.2796

                     49                     50                     51
                      A                      A                      A
 Frequencies --   3647.0635              3708.0022              3758.2286
 Red. masses --      1.0655                 1.0644                 1.0660
 Frc consts  --      8.3502                 8.6223                 8.8710
 IR Inten    --    153.8972                92.7606                56.3535

 Optimization completed.
    -- Stationary point found.
 Normal termination of Gaussian 16 at Thu Aug  4 16:39:58 2022.
