 Gaussian 16, Revision B.01,
 Gaussian 16:  ES64L-G16RevB.01 20-Dec-2017

 ------------------------------------------------------------------
 #T wB97XD/def2svpp opt freq int(grid=ultrafine) scf=(verytight,qc)
 ------------------------------------------------------------------
 --------------
 Comment gs min
 --------------
 Symbolic Z-matrix:
 Charge =  0 Multiplicity = 1

 SCF Done:  E(RwB97XD) =  -10333.6306144     a.u. after    7 cycles
 SCF Done:  E(RwB97XD) =  -10333.6322840     a.u. after    8 cycles
 SCF Done:  E(RwB97XD) =  -10333.6326314     a.u. after    5 cycles
 Optimization completed.
    -- Stationary point found.
 Normal termination of Gaussian 16 at Fri Aug  5 13:07:30 2022.

 ---------------------------------------------------------------------
 #T Geom=AllCheck Guess=TCheck SCRF=Check GenChk RwB97XD/def2SVPP Freq
 ---------------------------------------------------------------------
 Structure from the checkpoint file:  "/scratch/user/peterchao1/peterchao1/6101754_1659722778000000994502508/Gau-128870.chk"
 --------------
 Comment gs min
 --------------
 Charge =  0 Multiplicity = 1

                         Standard orientation:
 ---------------------------------------------------------------------
 Center     Atomic      Atomic             Coordinates (Angstroms)
 Number     Number       Type             X           Y           Z
 ---------------------------------------------------------------------
      1         35           0       -1.610479   -0.886883    0.612377
      2          6           0       -0.000023   -0.000001    0.000008
      3         35           0        0.633746   -0.856937   -1.618327
      4         35           0       -0.387630    1.863267   -0.364924
      5         35           0        1.364367   -0.119447    1.370873
 ---------------------------------------------------------------------

 SCF Done:  E(RwB97XD) =  -10333.6326314     a.u. after    1 cycles

 The electronic state is 1-A.
 Alpha  occ. eigenvalues -- -483.09004-483.09004-483.09004-483.09001 -62.67234
 Alpha  occ. eigenvalues --  -62.67234 -62.67234 -62.67232 -56.48052 -56.48052
 Alpha  occ. eigenvalues --  -56.48051 -56.48048 -56.47613 -56.47613 -56.47613
 Alpha  occ. eigenvalues --  -56.47611 -56.47611 -56.47611 -56.47610 -56.47610
 Alpha  occ. eigenvalues --  -10.50622  -8.84200  -8.84200  -8.84200  -8.84198
 Alpha  occ. eigenvalues --   -6.66914  -6.66914  -6.66914  -6.66914  -6.65332
 Alpha  occ. eigenvalues --   -6.65332  -6.65332  -6.65331  -6.65331  -6.65331
 Alpha  occ. eigenvalues --   -6.65331  -6.65331  -2.77246  -2.77244  -2.77244
 Alpha  occ. eigenvalues --   -2.77244  -2.76802  -2.76802  -2.76801  -2.76801
 Alpha  occ. eigenvalues --   -2.76801  -2.76800  -2.76800  -2.76800  -2.75539
 Alpha  occ. eigenvalues --   -2.75539  -2.75539  -2.75539  -2.75539  -2.75538
 Alpha  occ. eigenvalues --   -2.75538  -2.75538  -1.01408  -0.89587  -0.89587
 Alpha  occ. eigenvalues --   -0.89586  -0.69950  -0.55000  -0.55000  -0.55000
 Alpha  occ. eigenvalues --   -0.42685  -0.42685  -0.39877  -0.39877  -0.39876
 Alpha  occ. eigenvalues --   -0.36849  -0.36849  -0.36849
 Alpha virt. eigenvalues --   -0.01965   0.04209   0.04210   0.04210   0.28591
 Alpha virt. eigenvalues --    0.39399   0.39400   0.39401   0.44722   0.44722
 Alpha virt. eigenvalues --    0.44722   0.46162   0.46163   0.55534   0.55534

 Mulliken charges:
               1
     1  Br   0.076560
     2  C   -0.306261
     3  Br   0.076571
     4  Br   0.076564
     5  Br   0.076567
 Sum of Mulliken charges =   0.00000

 Dipole moment (field-independent basis, Debye):
    X=              0.0000    Y=             -0.0000    Z=             -0.0001  Tot=              0.0001
  Exact polarizability:  72.979   0.007  72.975  -0.012   0.004  72.974
 Approx polarizability:  89.940   0.000  89.940  -0.000  -0.000  89.935
   1 Symmetry operations used in ECPInt.
 ECPInt:  NShTT=    1485 NPrTT=    8951 LenC2=    1390 LenP2D=    5599.
 LDataN:  DoStor=T MaxTD1= 6 Len=  172
 Calling FoFJK, ICntrl=    100127 FMM=F ISym2X=0 I1Cent= 0 IOpClX= 0 NMat=1 NMatS=1 NMatT=0.
 Full mass-weighted force constant matrix:
 Low frequencies ---   -3.7888   -0.0093   -0.0082    0.0108    3.8766    5.3552
 Low frequencies ---  130.3824  130.4481  191.1799
 Diagonal vibrational polarizability:

                      1                      2                      3
                      A                      A                      A
 Frequencies --    130.3824               130.4481               191.1799
 Red. masses --     78.9183                78.9183                69.2214
 Frc consts  --      0.7904                 0.7912                 1.4906
 IR Inten    --      0.0000                 0.0000                 0.0448

                      4                      5                      6
                      A                      A                      A
 Frequencies --    191.2328               191.2807               282.9551
 Red. masses --     69.2427                69.2140                78.9183
 Frc consts  --      1.4919                 1.4921                 3.7227
 IR Inten    --      0.0462                 0.0449                 0.0000

                      7                      8                      9
                      A                      A                      A
 Frequencies --    705.7671               706.0127               706.3654
 Red. masses --     12.6633                12.6630                12.6622
 Frc consts  --      3.7164                 3.7189                 3.7223
 IR Inten    --     91.2775                91.2650                91.2302

 Optimization completed.
    -- Stationary point found.
 Normal termination of Gaussian 16 at Fri Aug  5 13:08:08 2022.
