 Gaussian 16, Revision B.01,
 Gaussian 16:  ES64L-G16RevB.01 20-Dec-2017

 ----------------------------------------------------------------------
 # opt=(calcall,tight,modredundant) wb97xd scf=(qc,verytight) def2svpp
 int=grid=ultrafine
 ----------------------------------------------------------------------

 -----
 dimer
 -----
 Symbolic Z-matrix:
 Charge =  0 Multiplicity = 1

 SCF Done:  E(RwB97XD) =  -20667.2716174     a.u. after    8 cycles
 SCF Done:  E(RwB97XD) =  -20667.2717251     a.u. after    5 cycles
 SCF Done:  E(RwB97XD) =  -20667.2717273     a.u. after    4 cycles
 SCF Done:  E(RwB97XD) =  -20667.2717276     a.u. after    3 cycles
 SCF Done:  E(RwB97XD) =  -20667.2717276     a.u. after    2 cycles
 SCF Done:  E(RwB97XD) =  -20667.2717276     a.u. after    2 cycles
 SCF Done:  E(RwB97XD) =  -20667.2717276     a.u. after    2 cycles
 SCF Done:  E(RwB97XD) =  -20667.2717276     a.u. after    2 cycles
 SCF Done:  E(RwB97XD) =  -20667.2717276     a.u. after    2 cycles
 SCF Done:  E(RwB97XD) =  -20667.2717276     a.u. after    2 cycles
 SCF Done:  E(RwB97XD) =  -20667.2717276     a.u. after    2 cycles
 SCF Done:  E(RwB97XD) =  -20667.2717276     a.u. after    2 cycles
 SCF Done:  E(RwB97XD) =  -20667.2717276     a.u. after    2 cycles
 Optimization completed.
    -- Stationary point found.

                         Standard orientation:
 ---------------------------------------------------------------------
 Center     Atomic      Atomic             Coordinates (Angstroms)
 Number     Number       Type             X           Y           Z
 ---------------------------------------------------------------------
      1         35           0       -1.852292    1.719851    0.658049
      2          6           0       -2.450066    0.001509   -0.002666
      3         35           0       -4.265652    0.176760   -0.670682
      4         35           0       -1.303301   -0.603477   -1.435173
      5         35           0       -2.436246   -1.293668    1.442147
      6         35           0        4.265742    0.228442    0.654401
      7          6           0        2.449931    0.001715    0.002468
      8         35           0        1.850019    1.665059   -0.784613
      9         35           0        2.436952   -1.398075   -1.341234
     10         35           0        1.304801   -0.495444    1.477140
 ---------------------------------------------------------------------

 The electronic state is 1-A.
 Alpha  occ. eigenvalues -- -483.09000-483.08998-483.08910-483.08910-483.08905
 Alpha  occ. eigenvalues -- -483.08904-483.08790-483.08788 -62.67221 -62.67220
 Alpha  occ. eigenvalues --  -62.67126 -62.67125 -62.67124 -62.67123 -62.67019
 Alpha  occ. eigenvalues --  -62.67018 -56.48037 -56.48036 -56.47945 -56.47944
 Alpha  occ. eigenvalues --  -56.47943 -56.47942 -56.47836 -56.47835 -56.47603
 Alpha  occ. eigenvalues --  -56.47602 -56.47600 -56.47599 -56.47507 -56.47506
 Alpha  occ. eigenvalues --  -56.47506 -56.47505 -56.47505 -56.47503 -56.47503
 Alpha  occ. eigenvalues --  -56.47502 -56.47397 -56.47397 -56.47396 -56.47395
 Alpha  occ. eigenvalues --  -10.50483 -10.50482  -8.84182  -8.84180  -8.84088
 Alpha  occ. eigenvalues --   -8.84086  -8.84083  -8.84082  -8.83984  -8.83983
 Alpha  occ. eigenvalues --   -6.66888  -6.66886  -6.66800  -6.66799  -6.66798
 Alpha  occ. eigenvalues --   -6.66798  -6.66697  -6.66696  -6.65323  -6.65321
 Alpha  occ. eigenvalues --   -6.65313  -6.65311  -6.65223  -6.65222  -6.65216
 Alpha  occ. eigenvalues --   -6.65216  -6.65215  -6.65215  -6.65211  -6.65211
 Alpha  occ. eigenvalues --   -6.65117  -6.65116  -6.65115  -6.65114  -2.77219
 Alpha  occ. eigenvalues --   -2.77218  -2.77132  -2.77131  -2.77129  -2.77129
 Alpha  occ. eigenvalues --   -2.77027  -2.77026  -2.76784  -2.76782  -2.76775
 Alpha  occ. eigenvalues --   -2.76774  -2.76690  -2.76689  -2.76686  -2.76686
 Alpha  occ. eigenvalues --   -2.76685  -2.76684  -2.76682  -2.76682  -2.76586
 Alpha  occ. eigenvalues --   -2.76584  -2.76584  -2.76583  -2.75527  -2.75527
 Alpha  occ. eigenvalues --   -2.75526  -2.75526  -2.75427  -2.75427  -2.75426
 Alpha  occ. eigenvalues --   -2.75426  -2.75421  -2.75420  -2.75420  -2.75420
 Alpha  occ. eigenvalues --   -2.75324  -2.75324  -2.75323  -2.75323  -1.01381
 Alpha  occ. eigenvalues --   -1.01201  -0.89650  -0.89603  -0.89514  -0.89451
 Alpha  occ. eigenvalues --   -0.89381  -0.89234  -0.70012  -0.69665  -0.55215
 Alpha  occ. eigenvalues --   -0.55151  -0.54937  -0.54898  -0.54691  -0.54553
 Alpha  occ. eigenvalues --   -0.43388  -0.42899  -0.42682  -0.41925  -0.41311
 Alpha  occ. eigenvalues --   -0.39902  -0.39856  -0.39786  -0.39766  -0.37809
 Alpha  occ. eigenvalues --   -0.36967  -0.36951  -0.36631  -0.36592  -0.36437
 Alpha  occ. eigenvalues --   -0.36322
 Alpha virt. eigenvalues --   -0.01853  -0.01837   0.04018   0.04151   0.04254
 Alpha virt. eigenvalues --    0.04270   0.04387   0.04838   0.24645   0.31472
 Alpha virt. eigenvalues --    0.36263   0.36335   0.38181   0.40078   0.40419

 Mulliken charges:
               1
     1  Br   0.078130
     2  C   -0.301201
     3  Br   0.071576
     4  Br   0.081875
     5  Br   0.069613
     6  Br   0.071534
     7  C   -0.301182
     8  Br   0.078207
     9  Br   0.069595
    10  Br   0.081854
 Sum of Mulliken charges =  -0.00000

 Dipole moment (field-independent basis, Debye):
    X=             -0.0003    Y=              0.0399    Z=             -0.0019  Tot=              0.0399
 Quadrupole moment (field-independent basis, Debye-Ang):
   XX=           -153.6026   YY=           -152.3742   ZZ=           -152.4890
   XY=              0.0023   XZ=              0.0699   YZ=             -0.0048

  Exact polarizability: 169.541   0.066 135.974   1.954  -0.034 135.190
 Approx polarizability: 187.291   0.010 181.253   0.248  -0.000 181.187

                      1                      2                      3
                      A                      A                      A
 Frequencies --     17.0991                25.1969                29.4251
 Red. masses --     78.6710                78.1453                78.8198
 Frc consts  --      0.0136                 0.0292                 0.0402
 IR Inten    --      0.0002                 0.0006                 0.0315

                      4                      5                      6
                      A                      A                      A
 Frequencies --     34.8347                36.7822                43.6523
 Red. masses --     74.7431                74.1459                65.8774
 Frc consts  --      0.0534                 0.0591                 0.0740
 IR Inten    --      0.0013                 0.0021                 0.0000

                      7                      8                      9
                      A                      A                      A
 Frequencies --    130.3783               132.4509               132.6225
 Red. masses --     78.9037                78.8840                78.8898
 Frc consts  --      0.7902                 0.8154                 0.8175
 IR Inten    --      0.0002                 0.0440                 0.0203

                     10                     11                     12
                      A                      A                      A
 Frequencies --    135.4638               190.8151               191.1255
 Red. masses --     78.8900                69.5279                69.2980
 Frc consts  --      0.8529                 1.4915                 1.4914
 IR Inten    --      0.0003                 0.2388                 0.0601

                     13                     14                     15
                      A                      A                      A
 Frequencies --    191.2489               192.1776               192.8719
 Red. masses --     69.4537                69.7167                68.9582
 Frc consts  --      1.4967                 1.5170                 1.5114
 IR Inten    --      0.0186                 0.0124                 0.0282

                     16                     17                     18
                      A                      A                      A
 Frequencies --    193.1038               283.0714               283.4103
 Red. masses --     69.1379                78.8895                78.8940
 Frc consts  --      1.5190                 3.7244                 3.7336
 IR Inten    --      0.0198                 0.0013                 0.0114

                     19                     20                     21
                      A                      A                      A
 Frequencies --    694.4576               696.9411               702.4571
 Red. masses --     12.6609                12.6527                12.6582
 Frc consts  --      3.5976                 3.6210                 3.6801
 IR Inten    --     22.4328               186.5109                30.5236

                     22                     23                     24
                      A                      A                      A
 Frequencies --    706.1344               712.7420               714.7036
 Red. masses --     12.6646                12.6688                12.6696
 Frc consts  --      3.7206                 3.7918                 3.8130
 IR Inten    --     45.5648                89.3125               137.2597

 - Thermochemistry -
 -------------------
 Temperature   298.150 Kelvin.  Pressure   1.00000 Atm.
 Atom     1 has atomic number 35 and mass  78.91834

 Molecular mass:   655.34669 amu.
 Principal axes and moments of inertia in atomic units:
                           1         2         3
     Eigenvalues --  5664.25061********************
           X            1.00000   0.00000   0.00000
           Y           -0.00000   1.00000   0.00000
           Z           -0.00000  -0.00000   1.00000
 This molecule is an asymmetric top.
 Rotational symmetry number  1.
 Warning -- assumption of classical behavior for rotation
           may cause significant error
 Rotational temperatures (Kelvin)      0.01529     0.00437     0.00437
 Rotational constants (GHZ):           0.31862     0.09097     0.09097
 Zero-point vibrational energy      39854.6 (Joules/Mol)
                                    9.52547 (Kcal/Mol)
 Warning -- explicit consideration of  18 degrees of freedom as
           vibrations may cause significant error
 Vibrational temperatures:     24.60    36.25    42.34    50.12    52.92
          (Kelvin)             62.81   187.59   190.57   190.81   194.90
                              274.54   274.99   275.16   276.50   277.50
                              277.83   407.28   407.76   999.17  1002.74
                             1010.68  1015.97  1025.48  1028.30

 Zero-point correction=                           0.015180 (Hartree/Particle)
 Thermal correction to Energy=                    0.030948
 Thermal correction to Enthalpy=                  0.031892
 Thermal correction to Gibbs Free Energy=        -0.037536
 Sum of electronic and zero-point Energies=         -20667.256548
 Sum of electronic and thermal Energies=            -20667.240780
 Sum of electronic and thermal Enthalpies=          -20667.239835
 Sum of electronic and thermal Free Energies=       -20667.309264

                     E (Thermal)             CV                S
                      KCal/Mol        Cal/Mol-Kelvin    Cal/Mol-Kelvin
 Total                   19.420             44.983            146.124
 Electronic               0.000              0.000              0.000
 Translational            0.889              2.981             45.322
 Rotational               0.889              2.981             36.054
 Vibrational             17.643             39.021             64.749
 Vibration     1          0.593              1.986              6.945
 Vibration     2          0.593              1.985              6.176
 Vibration     3          0.593              1.984              5.868
 Vibration     4          0.594              1.983              5.533
 Vibration     5          0.594              1.982              5.425
 Vibration     6          0.595              1.980              5.086
 Vibration     7          0.612              1.923              2.940
 Vibration     8          0.613              1.921              2.910
 Vibration     9          0.613              1.921              2.908
 Vibration    10          0.613              1.918              2.867
 Vibration    11          0.634              1.853              2.220
 Vibration    12          0.634              1.852              2.217
 Vibration    13          0.634              1.852              2.216
 Vibration    14          0.634              1.851              2.207
 Vibration    15          0.635              1.850              2.200
 Vibration    16          0.635              1.849              2.198
 Vibration    17          0.682              1.705              1.515
 Vibration    18          0.682              1.704              1.513

 Normal termination of Gaussian 16 at Mon Sep 26 15:55:28 2022.
