 Gaussian 16, Revision B.01,
 Gaussian 16:  ES64L-G16RevB.01 20-Dec-2017

 ----------------------------------------------------------------------
 #T wB97XD/def2svpp opt=(calcall,tight) int(grid=ultrafine) scf=(veryti
 ght,qc)
 ----------------------------------------------------------------------
 --------------
 Comment gs min
 --------------
 Symbolic Z-matrix:
 Charge =  0 Multiplicity = 1

 SCF Done:  E(RwB97XD) =  -2731.58359696     a.u. after    7 cycles
 SCF Done:  E(RwB97XD) =  -2731.58359635     a.u. after    2 cycles
 SCF Done:  E(RwB97XD) =  -2731.58359705     a.u. after    2 cycles
 SCF Done:  E(RwB97XD) =  -2731.58359637     a.u. after    2 cycles
 SCF Done:  E(RwB97XD) =  -2731.58359633     a.u. after    2 cycles
 SCF Done:  E(RwB97XD) =  -2731.58359625     a.u. after    2 cycles
 SCF Done:  E(RwB97XD) =  -2731.58359682     a.u. after    2 cycles
 SCF Done:  E(RwB97XD) =  -2731.58359644     a.u. after    2 cycles
 SCF Done:  E(RwB97XD) =  -2731.58359732     a.u. after    2 cycles
 SCF Done:  E(RwB97XD) =  -2731.58359723     a.u. after    2 cycles
 SCF Done:  E(RwB97XD) =  -2731.58359701     a.u. after    2 cycles
 SCF Done:  E(RwB97XD) =  -2731.58359738     a.u. after    2 cycles
 SCF Done:  E(RwB97XD) =  -2731.58359637     a.u. after    2 cycles
 SCF Done:  E(RwB97XD) =  -2731.58359642     a.u. after    2 cycles
 SCF Done:  E(RwB97XD) =  -2731.58359739     a.u. after    2 cycles
 SCF Done:  E(RwB97XD) =  -2731.58359736     a.u. after    2 cycles
 SCF Done:  E(RwB97XD) =  -2731.58359668     a.u. after    2 cycles
 SCF Done:  E(RwB97XD) =  -2731.58359646     a.u. after    2 cycles
 SCF Done:  E(RwB97XD) =  -2731.58359679     a.u. after    2 cycles
 SCF Done:  E(RwB97XD) =  -2731.58359632     a.u. after    2 cycles
 Optimization completed.
    -- Stationary point found.

                         Standard orientation:
 ---------------------------------------------------------------------
 Center     Atomic      Atomic             Coordinates (Angstroms)
 Number     Number       Type             X           Y           Z
 ---------------------------------------------------------------------
      1          6           0       -1.282772   -0.244526   -1.435123
      2          6           0       -0.827733   -0.000005    0.000003
      3          6           0       -1.282943    1.365051    0.505828
      4          6           0       -1.282708   -1.120655    0.929286
      5         35           0        1.164186    0.000037    0.000003
      6          1           0       -2.388243   -0.250530   -1.468917
      7          1           0       -0.920536   -1.215668   -1.810563
      8          1           0       -0.920928    0.547730   -2.110913
      9          1           0       -2.388421    1.397015    0.517799
     10          1           0       -0.921111    2.175827   -0.147646
     11          1           0       -0.920900    1.554370    1.529734
     12          1           0       -2.388174   -1.147191    0.951144
     13          1           0       -0.920724   -0.960082    1.958102
     14          1           0       -0.920538   -2.101956    0.581191
 ---------------------------------------------------------------------

 The electronic state is 1-A.
 Alpha  occ. eigenvalues -- -483.03466 -62.61680 -56.42436 -56.42095 -56.42095
 Alpha  occ. eigenvalues --  -10.36678 -10.29658 -10.29658 -10.29655  -8.78615
 Alpha  occ. eigenvalues --   -6.61103  -6.59870  -6.59870  -2.71472  -2.71127
 Alpha  occ. eigenvalues --   -2.71127  -2.70143  -2.70143  -0.94159  -0.82812
 Alpha  occ. eigenvalues --   -0.79100  -0.79100  -0.63685  -0.55574  -0.54172
 Alpha  occ. eigenvalues --   -0.54171  -0.48811  -0.48811  -0.46031  -0.43638
 Alpha  occ. eigenvalues --   -0.43638  -0.40792  -0.34826  -0.34826
 Alpha virt. eigenvalues --    0.07405   0.12668   0.18967   0.18968   0.19328
 Alpha virt. eigenvalues --    0.19665   0.19665   0.23589   0.23589   0.26388
 Alpha virt. eigenvalues --    0.26590   0.29093   0.29094   0.38856   0.46063

 Mulliken charges:
               1
     1  C   -0.241437
     2  C   -0.321695
     3  C   -0.241442
     4  C   -0.241425
     5  Br  -0.124964
     6  H    0.121275
     7  H    0.134525
     8  H    0.134522
     9  H    0.121274
    10  H    0.134523
    11  H    0.134528
    12  H    0.121273
    13  H    0.134522
    14  H    0.134521
 Sum of Mulliken charges =  -0.00000

 Dipole moment (field-independent basis, Debye):
    X=             -2.2320    Y=             -0.0001    Z=              0.0000  Tot=              2.2320
  Exact polarizability:  70.308  -0.001  53.661   0.002  -0.002  53.668
 Approx polarizability:  78.281   0.001  57.718   0.000   0.000  57.718
 Rotating derivatives to standard orientation.
 Full mass-weighted force constant matrix:
 Low frequencies ---  -10.2354   -0.0104   -0.0066   -0.0052    3.7077    6.6252
 Low frequencies ---  249.2924  278.2371  278.5009
 Diagonal vibrational polarizability:
        5.0687050       0.6622706       0.6631912
 Harmonic frequencies (cm**-1), IR intensities (KM/Mole), Raman scattering
 activities (A**4/AMU), depolarization ratios for plane and unpolarized

                      1                      2                      3
                      A                      A                      A
 Frequencies --    249.2923               278.2367               278.5005
 Red. masses --      1.0124                 2.3009                 2.3359
 Frc consts  --      0.0371                 0.1049                 0.1067
 IR Inten    --      0.0000                 0.2601                 0.2655

                      4                      5                      6
                      A                      A                      A
 Frequencies --    308.3522               309.0727               315.0724
 Red. masses --      1.1132                 1.1053                 4.0091
 Frc consts  --      0.0624                 0.0622                 0.2345
 IR Inten    --      0.1232                 0.1159                 4.3674

                      7                      8                      9
                      A                      A                      A
 Frequencies --    408.2795               408.6476               546.0352
 Red. masses --      2.3220                 2.3221                 2.7048
 Frc consts  --      0.2280                 0.2285                 0.4751
 IR Inten    --      0.1437                 0.1418                18.4360

                     10                     11                     12
                      A                      A                      A
 Frequencies --    836.4731               954.4422               954.6121
 Red. masses --      2.9205                 1.5359                 1.5351
 Frc consts  --      1.2040                 0.8243                 0.8242
 IR Inten    --      7.5079                 0.2935                 0.2974

                     13                     14                     15
                      A                      A                      A
 Frequencies --    982.7260              1059.0265              1059.1425
 Red. masses --      1.2023                 1.4091                 1.4095
 Frc consts  --      0.6841                 0.9311                 0.9316
 IR Inten    --      0.0005                 0.3079                 0.3113

                     16                     17                     18
                      A                      A                      A
 Frequencies --   1191.9430              1276.9867              1277.0362
 Red. masses --      1.8992                 2.5597                 2.5609
 Frc consts  --      1.5898                 2.4593                 2.4606
 IR Inten    --     86.1105                 4.5625                 4.5655

                     19                     20                     21
                      A                      A                      A
 Frequencies --   1413.1703              1413.4198              1435.9921
 Red. masses --      1.3152                 1.3152                 1.2316
 Frc consts  --      1.5475                 1.5480                 1.4963
 IR Inten    --     16.2083                16.2193                 2.4272

                     22                     23                     24
                      A                      A                      A
 Frequencies --   1464.4330              1477.6758              1477.8568
 Red. masses --      1.0443                 1.0435                 1.0434
 Frc consts  --      1.3195                 1.3425                 1.3427
 IR Inten    --      0.0002                 0.3647                 0.3947

                     25                     26                     27
                      A                      A                      A
 Frequencies --   1491.8390              1491.8699              1509.6754
 Red. masses --      1.0626                 1.0626                 1.0513
 Frc consts  --      1.3933                 1.3934                 1.4117
 IR Inten    --      9.7521                 9.7047                 9.0799

                     28                     29                     30
                      A                      A                      A
 Frequencies --   3030.0149              3030.0452              3035.7234
 Red. masses --      1.0392                 1.0392                 1.0397
 Frc consts  --      5.6214                 5.6216                 5.6452
 IR Inten    --     12.7679                12.8415                28.7468

                     31                     32                     33
                      A                      A                      A
 Frequencies --   3123.0694              3123.1399              3127.7378
 Red. masses --      1.1018                 1.1018                 1.1012
 Frc consts  --      6.3318                 6.3317                 6.3469
 IR Inten    --      2.6929                 2.9261                28.2481

                     34                     35                     36
                      A                      A                      A
 Frequencies --   3147.3979              3149.9051              3150.0810
 Red. masses --      1.1070                 1.1062                 1.1062
 Frc consts  --      6.4609                 6.4664                 6.4671
 IR Inten    --      0.0274                13.5449                13.9324

 1\1\GINC-C627\Freq\RwB97XD\def2SVPP\C4H9Br1\PETERCHAO1\10-Jul-2023\0\\
 #T wB97XD/def2svpp opt=(calcall,tight) int(grid=ultrafine) scf=(veryti
 ght,qc)\\Comment gs min\\0,1\C,-1.2828343619,-0.7983057467,-1.21731694
 78\C,-0.827561633,-0.0000007431,0.0000049243\C,-1.2825174784,1.4534900
 472,-0.0826603857\C,-1.2825580458,-0.6550550162,1.3001237736\Br,1.1643
 569397,-0.0003200765,-0.0001587188\H,-2.388310164,-0.8171330146,-1.245
 8037771\H,-0.9207812282,-1.8386053119,-1.1727883297\H,-0.9209776424,-0
 .3427479414,-2.1537035705\H,-2.3879895045,1.4877715219,-0.0843993831\H

 Normal termination of Gaussian 16 at Mon Jul 10 19:19:58 2023.
