 Gaussian 16, Revision B.01,
 Gaussian 16:  ES64L-G16RevB.01 20-Dec-2017

 ----------------------------------------------------------------------
 #T wB97XD/def2svpp opt=tight freq int(grid=ultrafine) scf=(verytight,q
 c)
 ----------------------------------------------------------------------
 -------
 comment
 -------
 Symbolic Z-matrix:
 Charge =  1 Multiplicity = 2

 SCF Done:  E(UwB97XD) =  -3046.44827241     a.u. after   24 cycles
 SCF Done:  E(UwB97XD) =  -3046.44796576     a.u. after   25 cycles
 SCF Done:  E(UwB97XD) =  -3046.45663838     a.u. after   26 cycles
 SCF Done:  E(UwB97XD) =  -3046.44909828     a.u. after   22 cycles
 SCF Done:  E(UwB97XD) =  -3046.45893570     a.u. after   10 cycles
 SCF Done:  E(UwB97XD) =  -3046.45896555     a.u. after   11 cycles
 SCF Done:  E(UwB97XD) =  -3046.45956562     a.u. after   13 cycles
 SCF Done:  E(UwB97XD) =  -3046.45998746     a.u. after    6 cycles
 SCF Done:  E(UwB97XD) =  -3046.46082839     a.u. after   18 cycles
 SCF Done:  E(UwB97XD) =  -3046.46104908     a.u. after    8 cycles
 SCF Done:  E(UwB97XD) =  -3046.46121068     a.u. after    3 cycles
 SCF Done:  E(UwB97XD) =  -3046.46121073     a.u. after    2 cycles
 SCF Done:  E(UwB97XD) =  -3046.46121081     a.u. after    2 cycles
 SCF Done:  E(UwB97XD) =  -3046.46121083     a.u. after    2 cycles
 SCF Done:  E(UwB97XD) =  -3046.46121085     a.u. after    2 cycles
 SCF Done:  E(UwB97XD) =  -3046.46121085     a.u. after    2 cycles
 SCF Done:  E(UwB97XD) =  -3046.46121084     a.u. after    2 cycles
 SCF Done:  E(UwB97XD) =  -3046.46121086     a.u. after    2 cycles
 SCF Done:  E(UwB97XD) =  -3046.46121084     a.u. after    2 cycles
 Optimization completed.
    -- Stationary point found.
 Normal termination of Gaussian 16 at Mon Jul 10 19:55:30 2023.

 ---------------------------------------------------------------------
 #T Geom=AllCheck Guess=TCheck SCRF=Check GenChk UwB97XD/def2SVPP Freq
 ---------------------------------------------------------------------
 Structure from the checkpoint file:  "40.chk"
 -------
 comment
 -------
 Charge =  1 Multiplicity = 2

                         Standard orientation:
 ---------------------------------------------------------------------
 Center     Atomic      Atomic             Coordinates (Angstroms)
 Number     Number       Type             X           Y           Z
 ---------------------------------------------------------------------
      1          8           0       -1.964392   -1.055742   -0.985411
      2          6           0       -0.583659   -1.141281   -1.195368
      3          6           0        0.104714   -0.337141   -0.081340
      4         35           0       -0.053542    1.516209   -0.175034
      5          6           0       -0.589617   -0.900868    1.430619
      6          8           0       -1.854827   -0.535964    1.492160
      7          7           0        1.589184   -0.716337    0.067849
      8          8           0        2.052987   -1.221851   -0.919604
      9          8           0        2.128872   -0.455109    1.102206
     10          1           0       -2.465246   -1.320908   -1.772092
     11          1           0       -0.278359   -0.720437   -2.169186
     12          1           0       -0.218062   -2.182919   -1.140916
     13          1           0        0.020295   -0.422492    2.208910
     14          1           0       -0.403932   -1.984538    1.286336
     15          1           0       -2.394776   -0.996585    0.799921
 ---------------------------------------------------------------------

 SCF Done:  E(UwB97XD) =  -3046.46121084     a.u. after    1 cycles

 The electronic state is 2-A.
 Alpha  occ. eigenvalues -- -483.29772 -62.87958 -56.68724 -56.68483 -56.68290
 Alpha  occ. eigenvalues --  -19.53897 -19.49709 -19.49091 -19.48091 -14.89056
 Alpha  occ. eigenvalues --  -10.64600 -10.60916 -10.57071  -9.04939  -6.87462
 Alpha  occ. eigenvalues --   -6.86453  -6.85900  -2.97891  -2.97664  -2.97260
 Alpha  occ. eigenvalues --   -2.96420  -2.96383  -1.54738  -1.41383  -1.37539
 Alpha  occ. eigenvalues --   -1.34231  -1.18721  -1.07664  -1.00880  -0.99689
 Alpha  occ. eigenvalues --   -0.89682  -0.85975  -0.85541  -0.83444  -0.81363
 Alpha  occ. eigenvalues --   -0.80093  -0.79044  -0.77422  -0.74333  -0.72276
 Alpha  occ. eigenvalues --   -0.69554  -0.64431  -0.63369  -0.61593  -0.59889
 Alpha  occ. eigenvalues --   -0.58887  -0.58054  -0.58027  -0.57092
 Alpha virt. eigenvalues --   -0.19365  -0.11679  -0.08857  -0.04739  -0.01594
 Alpha virt. eigenvalues --   -0.01000  -0.00034   0.02306   0.03920   0.06286
 Alpha virt. eigenvalues --    0.07936   0.09246   0.12211   0.17998   0.19789

  Beta  occ. eigenvalues -- -483.29703 -62.87910 -56.68687 -56.68324 -56.68256
  Beta  occ. eigenvalues --  -19.53117 -19.49485 -19.49117 -19.48057 -14.89044
  Beta  occ. eigenvalues --  -10.64222 -10.60794 -10.57058  -9.04852  -6.87421
  Beta  occ. eigenvalues --   -6.86210  -6.85863  -2.97822  -2.97544  -2.97239
  Beta  occ. eigenvalues --   -2.96306  -2.96282  -1.54570  -1.39693  -1.37300
  Beta  occ. eigenvalues --   -1.34080  -1.17738  -1.06645  -0.99848  -0.99287
  Beta  occ. eigenvalues --   -0.88648  -0.85612  -0.85025  -0.82712  -0.81078
  Beta  occ. eigenvalues --   -0.79640  -0.78491  -0.76148  -0.72907  -0.70501
  Beta  occ. eigenvalues --   -0.68739  -0.63396  -0.60634  -0.60141  -0.58862
  Beta  occ. eigenvalues --   -0.58281  -0.57409  -0.56723
  Beta virt. eigenvalues --   -0.35899  -0.19091  -0.10857  -0.08108  -0.03691
  Beta virt. eigenvalues --   -0.00867  -0.00484   0.00351   0.02571   0.04147
  Beta virt. eigenvalues --    0.06750   0.08262   0.09486   0.12474   0.18212

 Mulliken charges and spin densities:
               1          2
     1  O   -0.509178   0.011400
     2  C    0.110084   0.006526
     3  C   -0.348092   0.207333
     4  Br   0.338933   0.249788
     5  C    0.050226   0.074650
     6  O   -0.250540   0.315541
     7  N    0.277830   0.000780
     8  O   -0.142436   0.087438
     9  O   -0.150339  -0.008588
    10  H    0.389473   0.000146
    11  H    0.199721   0.017835
    12  H    0.177595  -0.001077
    13  H    0.237801   0.007157
    14  H    0.215350   0.039290
    15  H    0.403571  -0.008218
 Sum of Mulliken charges =   1.00000   1.00000

 Dipole moment (field-independent basis, Debye):
    X=             -4.6432    Y=             -3.1822    Z=             -1.0875  Tot=              5.7331
  Exact polarizability:  92.978   6.436  91.018 -12.092  -7.890  76.054
 Approx polarizability:  92.429   0.331  97.626 -12.715   2.242  97.093
                          Isotropic Fermi Contact Couplings
        Atom                 a.u.       MegaHertz       Gauss      10(-4) cm-1
     1  O(17)              0.00765      -4.64040      -1.65581      -1.54787
     2  C(13)             -0.00006      -0.07243      -0.02584      -0.02416
     3  C(13)              0.03663      41.17528      14.69237      13.73460
     4  Br(79)             0.04588      51.55402      18.39576      17.19657
     5  C(13)             -0.02119     -23.81834      -8.49898      -7.94494
     6  O(17)              0.12649     -76.68043     -27.36148     -25.57784

                      1                      2                      3
                      A                      A                      A
 Frequencies --     36.4271               119.3141               147.6626
 Red. masses --     14.7500                 5.3152                 6.4553
 Frc consts  --      0.0115                 0.0446                 0.0829
 IR Inten    --      0.3766                 0.7144                 1.5957

                      4                      5                      6
                      A                      A                      A
 Frequencies --    176.7325               184.1246               238.3356
 Red. masses --      3.1757                 9.3411                 1.2825
 Frc consts  --      0.0584                 0.1866                 0.0429
 IR Inten    --      5.4519                 2.0149               122.2409

                      7                      8                      9
                      A                      A                      A
 Frequencies --    265.0854               277.6102               299.9123
 Red. masses --      6.0341                 4.6451                 5.2869
 Frc consts  --      0.2498                 0.2109                 0.2802
 IR Inten    --      9.8464                15.9045                17.8280

                     10                     11                     12
                      A                      A                      A
 Frequencies --    321.8374               387.8059               426.0193
 Red. masses --      2.9477                 8.0685                 4.0083
 Frc consts  --      0.1799                 0.7149                 0.4286
 IR Inten    --      7.4732                 3.0109                 3.3979

                     13                     14                     15
                      A                      A                      A
 Frequencies --    527.9142               553.8292               592.0767
 Red. masses --      4.4958                 1.3955                 4.3673
 Frc consts  --      0.7382                 0.2522                 0.9020
 IR Inten    --     21.3902               144.8402                86.8515

                     16                     17                     18
                      A                      A                      A
 Frequencies --    777.2930               815.2066               895.8900
 Red. masses --      9.2772                 7.0097                 5.5531
 Frc consts  --      3.3025                 2.7446                 2.6260
 IR Inten    --     16.8476                17.5146                83.6828

                     19                     20                     21
                      A                      A                      A
 Frequencies --    972.1280              1023.3680              1102.0659
 Red. masses --      1.3139                 1.9112                 2.9880
 Frc consts  --      0.7316                 1.1793                 2.1382
 IR Inten    --     42.2680                25.0770                58.0587

                     22                     23                     24
                      A                      A                      A
 Frequencies --   1148.8003              1170.8810              1225.3662
 Red. masses --      2.5943                 1.3940                 1.2259
 Frc consts  --      2.0173                 1.1260                 1.0845
 IR Inten    --     46.6908                23.4337               111.9165

                     25                     26                     27
                      A                      A                      A
 Frequencies --   1258.4190              1307.0678              1325.6074
 Red. masses --      1.2682                 1.1549                 2.1651
 Frc consts  --      1.1833                 1.1625                 2.2416
 IR Inten    --     17.2650                50.2567                67.8663

                     28                     29                     30
                      A                      A                      A
 Frequencies --   1417.6689              1438.6322              1461.2325
 Red. masses --      1.3515                 2.9218                 1.9757
 Frc consts  --      1.6003                 3.5629                 2.4855
 IR Inten    --     88.7089                46.9873               122.1659

                     31                     32                     33
                      A                      A                      A
 Frequencies --   1503.3967              1523.4474              1799.2733
 Red. masses --      1.0998                 1.2871                14.3876
 Frc consts  --      1.4646                 1.7600                27.4430
 IR Inten    --      9.5167                17.9570               260.3994

                     34                     35                     36
                      A                      A                      A
 Frequencies --   3027.7477              3055.2084              3123.4059
 Red. masses --      1.0624                 1.0597                 1.1105
 Frc consts  --      5.7380                 5.8279                 6.3831
 IR Inten    --     15.6864                 4.6121                 4.5274

                     37                     38                     39
                      A                      A                      A
 Frequencies --   3206.4328              3399.3507              3755.1701
 Red. masses --      1.1084                 1.0664                 1.0676
 Frc consts  --      6.7143                 7.2607                 8.8696
 IR Inten    --      4.8742               774.3331               237.0149

 Optimization completed.
    -- Stationary point found.
 Normal termination of Gaussian 16 at Mon Jul 10 19:58:01 2023.
