 Gaussian 16, Revision B.01,
 Gaussian 16:  ES64L-G16RevB.01 20-Dec-2017

 --------------------------------------------------------------
 #T wB97XD//def2svpp Volume=tight Geom=AllCheckpoint Guess=Read
 --------------------------------------------------------------
 Structure from the checkpoint file:  "monomer.chk"
 -------
 Monomer
 -------
 Charge =  0 Multiplicity = 1

                         Standard orientation:
 ---------------------------------------------------------------------
 Center     Atomic      Atomic             Coordinates (Angstroms)
 Number     Number       Type             X           Y           Z
 ---------------------------------------------------------------------
      1          6           0        1.109851    1.370125    0.425367
      2          6           0        0.644491    0.151004   -0.385063
      3          6           0        1.561666   -1.053393   -0.199936
      4          6           0       -0.786177   -0.200582   -0.024989
      5          8           0       -1.643273    0.783808   -0.348728
      6          8           0       -1.153738   -1.219350    0.496967
      7          1           0        0.457912    2.241054    0.251786
      8          1           0        2.138694    1.643961    0.136709
      9          1           0        1.109701    1.143683    1.506246
     10          1           0        0.628029    0.443469   -1.450860
     11          1           0        1.579256   -1.372249    0.855692
     12          1           0        2.590702   -0.798626   -0.505382
     13          1           0        1.222795   -1.913231   -0.800113
     14          1           0       -2.529994    0.493348   -0.072265
 ---------------------------------------------------------------------

 SCF Done:  E(RwB97XD) =  -307.373016186     A.U. after    1 cycles

 The electronic state is 1-A.
 Alpha  occ. eigenvalues --  -19.30274 -19.24558 -10.42797 -10.31631 -10.29437
 Alpha  occ. eigenvalues --  -10.28559  -1.20448  -1.10713  -0.90510  -0.78143
 Alpha  occ. eigenvalues --   -0.75646  -0.66397  -0.59624  -0.57278  -0.55576
 Alpha  occ. eigenvalues --   -0.52435  -0.50256  -0.48668  -0.47440  -0.44821
 Alpha  occ. eigenvalues --   -0.43328  -0.42653  -0.40816  -0.36025
 Alpha virt. eigenvalues --    0.08575   0.13410   0.15071   0.18141   0.19661
 Alpha virt. eigenvalues --    0.19994   0.22029   0.23935   0.24432   0.28375
 Alpha virt. eigenvalues --    0.29291   0.33100   0.37915   0.41154   0.47738

 Mulliken charges:
               1
     1  C   -0.314512
     2  C   -0.246531
     3  C   -0.282726
     4  C    0.215572
     5  O   -0.373002
     6  O   -0.234967
     7  H    0.141674
     8  H    0.129753
     9  H    0.123805
    10  H    0.127564
    11  H    0.127658
    12  H    0.118318
    13  H    0.131109
    14  H    0.336285
 Sum of Mulliken charges =  -0.00000

 Dipole moment (field-independent basis, Debye):
    X=              0.2656    Y=              1.4256    Z=             -0.5903  Tot=              1.5657
 Evaluate density.
 Using the total density.
 Monte-Carlo method of calculating molar volume:
 based on  0.001 e/bohr**3 density envelope.
 Number of points per bohr**3 =  100 CutOff= 1.00D-04
 Using the SCF density.
 There are      1650 points.  Will hold      1650 in memory.
 LenV=  1048383779 MDV=  1048576000.
 Box volume = 4495.139 fraction occupied=0.183
 Integrated density= 4.1481405762580160D+01 error=-6.5185942374198405D+00

 Normal termination of Gaussian 16 at Tue Apr  2 13:48:01 2024.
