 Gaussian 16, Revision B.01,
 Gaussian 16:  ES64L-G16RevB.01 20-Dec-2017

 ----------------------------------------------------------------------
 #T wB97XD/def2svpp opt=tight freq int(grid=ultrafine) scf=(verytight,q
 c) Volume=tight
 ----------------------------------------------------------------------
 -------
 Monomer
 -------
 Symbolic Z-matrix:
 Charge =  0 Multiplicity = 1

 SCF Done:  E(RwB97XD) =  -269.259351859     a.u. after    7 cycles
 SCF Done:  E(RwB97XD) =  -269.260502959     a.u. after    8 cycles
 SCF Done:  E(RwB97XD) =  -269.260533166     a.u. after    7 cycles
 SCF Done:  E(RwB97XD) =  -269.260641243     a.u. after    6 cycles
 SCF Done:  E(RwB97XD) =  -269.260646674     a.u. after    3 cycles
 SCF Done:  E(RwB97XD) =  -269.260647747     a.u. after    3 cycles
 SCF Done:  E(RwB97XD) =  -269.260648112     a.u. after    3 cycles
 SCF Done:  E(RwB97XD) =  -269.260648140     a.u. after    2 cycles
 SCF Done:  E(RwB97XD) =  -269.260648145     a.u. after    2 cycles
 SCF Done:  E(RwB97XD) =  -269.260648145     a.u. after    2 cycles
 SCF Done:  E(RwB97XD) =  -269.260648146     a.u. after    2 cycles
 Optimization completed.
    -- Stationary point found.
 Normal termination of Gaussian 16 at Fri Mar 29 15:36:55 2024.

 ---------------------------------------------------------------------
 #T Geom=AllCheck Guess=TCheck SCRF=Check GenChk RwB97XD/def2SVPP Freq
 ---------------------------------------------------------------------
 Structure from the checkpoint file:  "monomer.chk"
 -------
 Monomer
 -------
 Charge =  0 Multiplicity = 1

                         Standard orientation:
 ---------------------------------------------------------------------
 Center     Atomic      Atomic             Coordinates (Angstroms)
 Number     Number       Type             X           Y           Z
 ---------------------------------------------------------------------
      1          6           0       -1.788012   -0.564637    0.024178
      2          6           0       -0.438823    0.027861   -0.348507
      3          8           0       -0.323304    1.385719    0.053676
      4          6           0        0.747016   -0.749387    0.220358
      5          8           0        1.949634   -0.118146   -0.103708
      6          1           0       -2.603825    0.044264   -0.398628
      7          1           0       -1.913505   -0.598459    1.123018
      8          1           0       -1.887701   -1.595391   -0.356793
      9          1           0       -0.331404    0.056944   -1.445383
     10          1           0       -0.563477    1.447439    0.990103
     11          1           0        0.775091   -1.772861   -0.190821
     12          1           0        0.614192   -0.840079    1.324339
     13          1           0        1.778899    0.834536   -0.021745
 ---------------------------------------------------------------------

 SCF Done:  E(RwB97XD) =  -269.260648146     a.u. after    1 cycles

 The electronic state is 1-A.
 Alpha  occ. eigenvalues --  -19.26492 -19.23821 -10.34817 -10.33368 -10.29674
 Alpha  occ. eigenvalues --   -1.13490  -1.09821  -0.86515  -0.77063  -0.70874
 Alpha  occ. eigenvalues --   -0.61059  -0.58061  -0.55143  -0.53111  -0.50809
 Alpha  occ. eigenvalues --   -0.48840  -0.46167  -0.42476  -0.41049  -0.37794
 Alpha  occ. eigenvalues --   -0.34346
 Alpha virt. eigenvalues --    0.12068   0.15680   0.16742   0.18879   0.19913
 Alpha virt. eigenvalues --    0.21454   0.22412   0.24090   0.28777   0.30504
 Alpha virt. eigenvalues --    0.30596   0.33114   0.53226   0.54193   0.56218

 Mulliken charges:
               1
     1  C   -0.324503
     2  C   -0.020258
     3  O   -0.500290
     4  C    0.046639
     5  O   -0.490021
     6  H    0.140600
     7  H    0.107166
     8  H    0.128852
     9  H    0.108153
    10  H    0.314843
    11  H    0.104274
    12  H    0.065275
    13  H    0.319269
 Sum of Mulliken charges =   0.00000

 Dipole moment (field-independent basis, Debye):
    X=             -2.2213    Y=             -0.2844    Z=              1.3110  Tot=              2.5950
  Exact polarizability:  40.940   1.035  39.124  -0.825   0.549  37.269
 Approx polarizability:  38.953   0.843  41.670  -1.572   0.791  40.103
   1 Symmetry operations used in ECPInt.
 ECPInt:  NShTT=    1081 NPrTT=    4367 LenC2=    1080 LenP2D=    3700.
 LDataN:  DoStor=T MaxTD1= 6 Len=  172
 Calling FoFJK, ICntrl=    100127 FMM=F ISym2X=0 I1Cent= 0 IOpClX= 0 NMat=1 NMatS=1 NMatT=0.
 Full mass-weighted force constant matrix:
 Low frequencies ---   -7.0257   -0.0016   -0.0015   -0.0011    3.5143   13.9247
 Low frequencies ---  163.3270  247.9003  265.2151
 Diagonal vibrational polarizability:

                      1                      2                      3
                      A                      A                      A
 Frequencies --    163.3085               247.8996               265.2086
 Red. masses --      2.7453                 1.0525                 3.2522
 Frc consts  --      0.0431                 0.0381                 0.1348
 IR Inten    --      7.2873                 0.1517                 3.1381

                      4                      5                      6
                      A                      A                      A
 Frequencies --    350.7058               393.1449               483.6267
 Red. masses --      1.2233                 2.4590                 2.0034
 Frc consts  --      0.0886                 0.2239                 0.2761
 IR Inten    --     38.8077                40.6541                 2.6074

                      7                      8                      9
                      A                      A                      A
 Frequencies --    531.4708               571.6251               857.2626
 Red. masses --      1.6615                 1.6649                 2.4007
 Frc consts  --      0.2765                 0.3205                 1.0395
 IR Inten    --     48.7904               156.2997                22.4479

                     10                     11                     12
                      A                      A                      A
 Frequencies --    942.7868               955.1484              1091.4791
 Red. masses --      1.3934                 1.6566                 1.5532
 Frc consts  --      0.7297                 0.8905                 1.0902
 IR Inten    --      1.8525                 9.2246                44.2009

                     13                     14                     15
                      A                      A                      A
 Frequencies --   1142.6444              1158.4871              1197.7524
 Red. masses --      2.0858                 3.4710                 2.3864
 Frc consts  --      1.6046                 2.7447                 2.0171
 IR Inten    --     11.3970               149.7499                50.4351

                     16                     17                     18
                      A                      A                      A
 Frequencies --   1233.4724              1324.2968              1338.9470
 Red. masses --      1.2219                 1.5194                 1.3218
 Frc consts  --      1.0953                 1.5700                 1.3961
 IR Inten    --     21.0917                 9.2852                 5.5448

                     19                     20                     21
                      A                      A                      A
 Frequencies --   1401.1707              1418.5529              1447.8977
 Red. masses --      1.2298                 1.2820                 1.2738
 Frc consts  --      1.4225                 1.5200                 1.5733
 IR Inten    --     11.1672                19.9430                66.4218

                     22                     23                     24
                      A                      A                      A
 Frequencies --   1469.1157              1490.0102              1493.0916
 Red. masses --      1.3442                 1.0904                 1.0843
 Frc consts  --      1.7093                 1.4263                 1.4242
 IR Inten    --     48.4406                20.5102                 5.8915

                     25                     26                     27
                      A                      A                      A
 Frequencies --   1515.8907              2942.1892              3027.0839
 Red. masses --      1.0967                 1.0734                 1.0407
 Frc consts  --      1.4848                 5.4747                 5.6188
 IR Inten    --      3.6965                79.5034                15.3599

                     28                     29                     30
                      A                      A                      A
 Frequencies --   3093.5235              3102.7941              3122.3763
 Red. masses --      1.0880                 1.0949                 1.0999
 Frc consts  --      6.1345                 6.2104                 6.3177
 IR Inten    --     12.9173                21.4516                39.7351

                     31                     32                     33
                      A                      A                      A
 Frequencies --   3145.7713              3704.7713              3743.6597
 Red. masses --      1.1055                 1.0648                 1.0657
 Frc consts  --      6.4457                 8.6104                 8.7997
 IR Inten    --     11.3953                57.7060                20.6543

 Optimization completed.
    -- Stationary point found.
 Normal termination of Gaussian 16 at Fri Mar 29 15:37:41 2024.
