 Gaussian 16, Revision B.01,
 Gaussian 16:  ES64L-G16RevB.01 20-Dec-2017

 ----------------------------------------------------------------------
 #T wB97XD/def2svpp opt=tight freq int(grid=ultrafine) scf=(verytight,q
 c) Volume=tight
 ----------------------------------------------------------------------
 -------
 Monomer
 -------
 Symbolic Z-matrix:
 Charge =  0 Multiplicity = 1

 SCF Done:  E(RwB97XD) =  -387.075244855     a.u. after    7 cycles
 Optimization completed.
    -- Stationary point found.

 1\1\GINC-C169\FOpt\RwB97XD\def2SVPP\C6H14O2\PETERCHAO1\06-Feb-2023\0\\
 #T wB97XD/def2svpp opt=tight freq int(grid=ultrafine) scf=(verytight,q
 c) Volume=tight\\Monomer\\0,1\C,2.268184,-0.635005,-0.671838\C,0.92486
 7,0.014494,-1.002977\C,0.07655,0.49987,0.191785\C,0.748777,1.673044,0.
 91272\C,-1.295744,0.975105,-0.337562\O,-2.001204,0.004585,-1.057088\C,
 -0.1448,-0.624429,1.220729\O,-0.789641,-1.769168,0.690868\H,2.810649,-
 0.885706,-1.599076\H,2.153989,-1.575253,-0.102046\H,2.91878,0.031018,-
 0.079572\H,0.311943,-0.680139,-1.603329\H,1.098699,0.883511,-1.663969\

 Normal termination of Gaussian 16 at Mon Feb  6 10:23:13 2023.

 ---------------------------------------------------------------------
 #T Geom=AllCheck Guess=TCheck SCRF=Check GenChk RwB97XD/def2SVPP Freq
 ---------------------------------------------------------------------
 Structure from the checkpoint file:  "15.chk"
 -------
 Monomer
 -------
 Charge =  0 Multiplicity = 1

                         Standard orientation:
 ---------------------------------------------------------------------
 Center     Atomic      Atomic             Coordinates (Angstroms)
 Number     Number       Type             X           Y           Z
 ---------------------------------------------------------------------
      1          6           0        2.268184   -0.635005   -0.671838
      2          6           0        0.924867    0.014494   -1.002977
      3          6           0        0.076550    0.499870    0.191785
      4          6           0        0.748777    1.673044    0.912720
      5          6           0       -1.295744    0.975105   -0.337562
      6          8           0       -2.001204    0.004585   -1.057088
      7          6           0       -0.144800   -0.624429    1.220729
      8          8           0       -0.789641   -1.769168    0.690868
      9          1           0        2.810649   -0.885706   -1.599076
     10          1           0        2.153989   -1.575253   -0.102046
     11          1           0        2.918780    0.031018   -0.079572
     12          1           0        0.311943   -0.680139   -1.603329
     13          1           0        1.098699    0.883511   -1.663969
     14          1           0        0.941940    2.504279    0.212034
     15          1           0        1.713439    1.381812    1.363189
     16          1           0        0.108493    2.060779    1.725712
     17          1           0       -1.145358    1.831125   -1.019468
     18          1           0       -1.890792    1.349632    0.525399
     19          1           0       -1.987629   -0.809829   -0.525118
     20          1           0       -0.808001   -0.258982    2.022908
     21          1           0        0.813910   -0.905612    1.699473
     22          1           0       -0.180313   -2.228436    0.096477
 ---------------------------------------------------------------------

 SCF Done:  E(RwB97XD) =  -387.075244855     a.u. after    1 cycles

 The electronic state is 1-A.
 Alpha  occ. eigenvalues --  -19.27206 -19.22858 -10.34549 -10.32804 -10.30831
 Alpha  occ. eigenvalues --  -10.29350 -10.29305 -10.29105  -1.13318  -1.09457
 Alpha  occ. eigenvalues --   -0.91854  -0.83774  -0.77495  -0.76120  -0.72199
 Alpha  occ. eigenvalues --   -0.64969  -0.62244  -0.57815  -0.56101  -0.53915
 Alpha  occ. eigenvalues --   -0.53302  -0.50672  -0.49719  -0.48356  -0.47652
 Alpha  occ. eigenvalues --   -0.46999  -0.44534  -0.43233  -0.42987  -0.40846
 Alpha  occ. eigenvalues --   -0.39356  -0.35638  -0.33589
 Alpha virt. eigenvalues --    0.11053   0.13391   0.16125   0.16716   0.18524
 Alpha virt. eigenvalues --    0.19059   0.20311   0.21292   0.22393   0.23037
 Alpha virt. eigenvalues --    0.23881   0.25074   0.25631   0.27558   0.28891

 Mulliken charges:
               1
     1  C   -0.319407
     2  C   -0.206201
     3  C   -0.317410
     4  C   -0.286678
     5  C    0.106184
     6  O   -0.503255
     7  C    0.040517
     8  O   -0.500962
     9  H    0.129547
    10  H    0.104459
    11  H    0.122744
    12  H    0.109988
    13  H    0.106421
    14  H    0.122999
    15  H    0.123725
    16  H    0.119249
    17  H    0.093590
    18  H    0.081003
    19  H    0.323064
    20  H    0.108942
    21  H    0.108475
    22  H    0.333003
 Sum of Mulliken charges =   0.00000

 Dipole moment (field-independent basis, Debye):
    X=              2.5649    Y=             -0.1235    Z=              1.0530  Tot=              2.7754
  Exact polarizability:  71.498  -1.853  69.987  -1.297   2.030  67.453
 Approx polarizability:  72.814   0.389  74.700  -0.042   1.465  73.051
   1 Symmetry operations used in ECPInt.
 ECPInt:  NShTT=    2926 NPrTT=   11774 LenC2=    2914 LenP2D=    9454.
 LDataN:  DoStor=T MaxTD1= 6 Len=  172
 Calling FoFJK, ICntrl=    100127 FMM=F ISym2X=0 I1Cent= 0 IOpClX= 0 NMat=1 NMatS=1 NMatT=0.
 Full mass-weighted force constant matrix:
 Low frequencies ---   -8.5060   -3.0804   -0.0010   -0.0009    0.0003    6.1502
 Low frequencies ---   91.3165  146.4268  178.5870
 Diagonal vibrational polarizability:

                      1                      2                      3
                      A                      A                      A
 Frequencies --     91.3056               146.4242               178.5837
 Red. masses --      2.0637                 2.8226                 2.6905
 Frc consts  --      0.0101                 0.0357                 0.0506
 IR Inten    --      1.4208                 5.5481                 1.1962

                      4                      5                      6
                      A                      A                      A
 Frequencies --    216.4844               243.2273               261.7380
 Red. masses --      1.2950                 1.6054                 2.4350
 Frc consts  --      0.0358                 0.0560                 0.0983
 IR Inten    --      0.1965                 1.7882                 1.0091

                      7                      8                      9
                      A                      A                      A
 Frequencies --    295.2071               323.0543               348.1954
 Red. masses --      1.9008                 2.3800                 1.1987
 Frc consts  --      0.0976                 0.1463                 0.0856
 IR Inten    --      7.0070                 0.3573               132.6418

                     10                     11                     12
                      A                      A                      A
 Frequencies --    372.0066               386.3457               442.5102
 Red. masses --      2.0238                 3.2744                 2.1445
 Frc consts  --      0.1650                 0.2880                 0.2474
 IR Inten    --     14.6392                 0.2291                30.5965

                     13                     14                     15
                      A                      A                      A
 Frequencies --    515.9129               581.8014               657.1466
 Red. masses --      2.9205                 2.4548                 1.2372
 Frc consts  --      0.4580                 0.4896                 0.3148
 IR Inten    --      6.4119                14.7117               120.0205

                     16                     17                     18
                      A                      A                      A
 Frequencies --    747.9655               796.8996               898.9427
 Red. masses --      2.4207                 1.2783                 1.9911
 Frc consts  --      0.7979                 0.4783                 0.9480
 IR Inten    --     16.3014                 4.8412                 3.8661

                     19                     20                     21
                      A                      A                      A
 Frequencies --    930.4365               975.7473              1003.7209
 Red. masses --      1.6917                 1.3399                 1.3844
 Frc consts  --      0.8629                 0.7516                 0.8218
 IR Inten    --      6.8813                 9.3621                 1.7066

                     22                     23                     24
                      A                      A                      A
 Frequencies --   1030.3076              1057.0104              1094.0089
 Red. masses --      1.6234                 1.5240                 2.3594
 Frc consts  --      1.0154                 1.0032                 1.6638
 IR Inten    --      5.1870                 7.1907                 2.1006

                     25                     26                     27
                      A                      A                      A
 Frequencies --   1117.9876              1156.7572              1177.1419
 Red. masses --      4.6441                 4.2893                 1.3549
 Frc consts  --      3.4200                 3.3816                 1.1062
 IR Inten    --     60.4605                97.4516                35.4372

                     28                     29                     30
                      A                      A                      A
 Frequencies --   1213.2828              1240.1540              1275.2826
 Red. masses --      1.8265                 1.6764                 1.7853
 Frc consts  --      1.5841                 1.5190                 1.7107
 IR Inten    --     23.1344                 4.0059                13.8426

                     31                     32                     33
                      A                      A                      A
 Frequencies --   1309.4470              1345.4691              1386.9409
 Red. masses --      1.3577                 1.5140                 1.3867
 Frc consts  --      1.3716                 1.6148                 1.5716
 IR Inten    --      5.2443                 2.7383                 3.1119

                     34                     35                     36
                      A                      A                      A
 Frequencies --   1391.4587              1408.4731              1420.5548
 Red. masses --      1.3767                 1.2246                 1.3402
 Frc consts  --      1.5705                 1.4314                 1.5934
 IR Inten    --      2.1028                17.4754                 3.4222

                     37                     38                     39
                      A                      A                      A
 Frequencies --   1433.1293              1445.3889              1481.4382
 Red. masses --      1.2869                 1.3708                 1.1838
 Frc consts  --      1.5573                 1.6873                 1.5308
 IR Inten    --      2.6991                13.5611                78.6839

                     40                     41                     42
                      A                      A                      A
 Frequencies --   1487.3299              1490.1331              1498.2999
 Red. masses --      1.0716                 1.0668                 1.0845
 Frc consts  --      1.3967                 1.3956                 1.4344
 IR Inten    --      8.8672                 6.7138                29.4349

                     43                     44                     45
                      A                      A                      A
 Frequencies --   1504.7086              1508.6187              1509.7497
 Red. masses --      1.0830                 1.0618                 1.0611
 Frc consts  --      1.4447                 1.4238                 1.4251
 IR Inten    --      5.6085                22.0980                 9.2149

                     46                     47                     48
                      A                      A                      A
 Frequencies --   1521.2509              2964.1891              3023.6602
 Red. masses --      1.0831                 1.0715                 1.0608
 Frc consts  --      1.4767                 5.5471                 5.7142
 IR Inten    --      2.6416                77.5869                17.4441

                     49                     50                     51
                      A                      A                      A
 Frequencies --   3027.0158              3032.5265              3044.5302
 Red. masses --      1.0396                 1.0447                 1.0667
 Frc consts  --      5.6125                 5.6607                 5.8253
 IR Inten    --     25.7315                47.8872                13.4937

                     52                     53                     54
                      A                      A                      A
 Frequencies --   3078.6971              3095.2986              3104.7185
 Red. masses --      1.0959                 1.1007                 1.1024
 Frc consts  --      6.1202                 6.2134                 6.2609
 IR Inten    --     35.4486                 3.5489                22.7588

                     55                     56                     57
                      A                      A                      A
 Frequencies --   3115.1481              3117.3016              3124.4994
 Red. masses --      1.1037                 1.1025                 1.1045
 Frc consts  --      6.3105                 6.3123                 6.3528
 IR Inten    --     23.0466                45.8490                19.3466

                     58                     59                     60
                      A                      A                      A
 Frequencies --   3133.7309              3668.9429              3774.0875
 Red. masses --      1.1040                 1.0654                 1.0659
 Frc consts  --      6.3875                 8.4496                 8.9451
 IR Inten    --     22.2218               137.4443                33.8995

 Optimization completed.
    -- Stationary point found.

 1\1\GINC-C169\Freq\RwB97XD\def2SVPP\C6H14O2\PETERCHAO1\06-Feb-2023\0\\
 #T Geom=AllCheck Guess=TCheck SCRF=Check GenChk RwB97XD/def2SVPP Freq\
 \Monomer\\0,1\C,2.268184,-0.635005,-0.671838\C,0.924867,0.014494,-1.00
 2977\C,0.07655,0.49987,0.191785\C,0.748777,1.673044,0.91272\C,-1.29574
 4,0.975105,-0.337562\O,-2.001204,0.004585,-1.057088\C,-0.1448,-0.62442
 9,1.220729\O,-0.789641,-1.769168,0.690868\H,2.810649,-0.885706,-1.5990
 76\H,2.153989,-1.575253,-0.102046\H,2.91878,0.031018,-0.079572\H,0.311
 943,-0.680139,-1.603329\H,1.098699,0.883511,-1.663969\H,0.94194,2.5042

 Normal termination of Gaussian 16 at Mon Feb  6 10:25:34 2023.
