 Gaussian 16, Revision B.01,
 Gaussian 16:  ES64L-G16RevB.01 20-Dec-2017

 --------------------------------------------------------------
 #T wB97XD//def2svpp Volume=tight Geom=AllCheckpoint Guess=Read
 --------------------------------------------------------------
 Structure from the checkpoint file:  "46.chk"
 -------
 Monomer
 -------
 Charge =  0 Multiplicity = 1

                         Standard orientation:
 ---------------------------------------------------------------------
 Center     Atomic      Atomic             Coordinates (Angstroms)
 Number     Number       Type             X           Y           Z
 ---------------------------------------------------------------------
      1          6           0       -1.282861    1.283340    0.687272
      2          6           0       -0.827731    0.000000   -0.000004
      3          6           0       -1.282832   -1.236893    0.767738
      4          6           0       -1.282736   -0.046463   -1.455075
      5         35           0        1.164186    0.000005    0.000018
      6          1           0       -2.388333    1.313498    0.703455
      7          1           0       -0.920897    2.175641    0.150534
      8          1           0       -0.920838    1.331147    1.727437
      9          1           0       -2.388302   -1.266037    0.785751
     10          1           0       -0.920860   -1.218208    1.808852
     11          1           0       -0.920767   -2.161598    0.289055
     12          1           0       -2.388204   -0.047534   -1.489425
     13          1           0       -0.920697   -0.957447   -1.959383
     14          1           0       -0.920651    0.830449   -2.016516
 ---------------------------------------------------------------------

 SCF Done:  E(RwB97XD) =  -2731.58359663     A.U. after    1 cycles

 The electronic state is 1-A.
 Alpha  occ. eigenvalues -- -483.03466 -62.61680 -56.42436 -56.42095 -56.42095
 Alpha  occ. eigenvalues --  -10.36678 -10.29658 -10.29658 -10.29655  -8.78615
 Alpha  occ. eigenvalues --   -6.61103  -6.59870  -6.59870  -2.71472  -2.71127
 Alpha  occ. eigenvalues --   -2.71127  -2.70143  -2.70143  -0.94159  -0.82812
 Alpha  occ. eigenvalues --   -0.79100  -0.79100  -0.63685  -0.55574  -0.54172
 Alpha  occ. eigenvalues --   -0.54171  -0.48811  -0.48811  -0.46031  -0.43638
 Alpha  occ. eigenvalues --   -0.43638  -0.40792  -0.34826  -0.34826
 Alpha virt. eigenvalues --    0.07405   0.12668   0.18967   0.18968   0.19328
 Alpha virt. eigenvalues --    0.19665   0.19665   0.23589   0.23589   0.26388
 Alpha virt. eigenvalues --    0.26590   0.29093   0.29093   0.38857   0.46063

 Mulliken charges:
               1
     1  C   -0.241441
     2  C   -0.321692
     3  C   -0.241444
     4  C   -0.241441
     5  Br  -0.124962
     6  H    0.121274
     7  H    0.134526
     8  H    0.134527
     9  H    0.121275
    10  H    0.134525
    11  H    0.134527
    12  H    0.121274
    13  H    0.134525
    14  H    0.134527
 Sum of Mulliken charges =  -0.00000

 Dipole moment (field-independent basis, Debye):
    X=             -2.2320    Y=              0.0000    Z=             -0.0000  Tot=              2.2320
 Evaluate density.
 Using the total density.
 Monte-Carlo method of calculating molar volume:
 based on  0.001 e/bohr**3 density envelope.
 Number of points per bohr**3 =  100 CutOff= 1.00D-04
 Using the SCF density.
 There are      1998 points.  Will hold      1998 in memory.
 LenV=  1048330122 MDV=  1048576000.
 Box volume = 7980.778 fraction occupied=0.110
 Integrated density= 3.4865797448548435D+01 error=-3.3134202551451565D+01

 Normal termination of Gaussian 16 at Mon Jul 10 19:42:21 2023.
