 Gaussian 16, Revision B.01,
 Gaussian 16:  ES64L-G16RevB.01 20-Dec-2017

 ----------------------------------------------------------------------
 #T wB97XD/def2svpp opt=tight freq int(grid=ultrafine) scf=(verytight,q
 c)
 ----------------------------------------------------------------------
 -------
 comment
 -------
 Symbolic Z-matrix:
 Charge =  1 Multiplicity = 2

 SCF Done:  E(UwB97XD) =  -458.039941201     a.u. after   17 cycles
 SCF Done:  E(UwB97XD) =  -458.049989796     a.u. after   15 cycles
 SCF Done:  E(UwB97XD) =  -458.052436535     a.u. after   11 cycles
 SCF Done:  E(UwB97XD) =  -458.054828771     a.u. after   10 cycles
 SCF Done:  E(UwB97XD) =  -458.054484285     a.u. after   12 cycles
 SCF Done:  E(UwB97XD) =  -458.057321213     a.u. after   11 cycles
 SCF Done:  E(UwB97XD) =  -458.059783146     a.u. after   13 cycles
 SCF Done:  E(UwB97XD) =  -458.063401443     a.u. after   14 cycles
 SCF Done:  E(UwB97XD) =  -458.066705218     a.u. after   11 cycles
 SCF Done:  E(UwB97XD) =  -458.070131186     a.u. after   11 cycles
 SCF Done:  E(UwB97XD) =  -458.107177064     a.u. after    3 cycles
 SCF Done:  E(UwB97XD) =  -458.107180615     a.u. after    3 cycles
 SCF Done:  E(UwB97XD) =  -458.107181826     a.u. after    2 cycles
 SCF Done:  E(UwB97XD) =  -458.107182639     a.u. after    2 cycles
 SCF Done:  E(UwB97XD) =  -458.107182821     a.u. after    2 cycles
 SCF Done:  E(UwB97XD) =  -458.107182872     a.u. after    2 cycles
 SCF Done:  E(UwB97XD) =  -458.107182872     a.u. after    2 cycles
 SCF Done:  E(UwB97XD) =  -458.107182847     a.u. after    2 cycles
 SCF Done:  E(UwB97XD) =  -458.107182875     a.u. after    2 cycles
 Optimization completed.
    -- Stationary point found.
 Normal termination of Gaussian 16 at Mon Jul 10 21:27:05 2023.

 ---------------------------------------------------------------------
 #T Geom=AllCheck Guess=TCheck SCRF=Check GenChk UwB97XD/def2SVPP Freq
 ---------------------------------------------------------------------
 Structure from the checkpoint file:  "29.chk"
 -------
 comment
 -------
 Charge =  1 Multiplicity = 2

                         Standard orientation:
 ---------------------------------------------------------------------
 Center     Atomic      Atomic             Coordinates (Angstroms)
 Number     Number       Type             X           Y           Z
 ---------------------------------------------------------------------
      1          7           0        0.667620    2.020214   -0.927707
      2          6           0       -0.086292    0.867316   -1.007660
      3          6           0       -0.275437    0.004650    0.233441
      4          6           0       -0.170847   -1.476368   -0.188138
      5          7           0        1.081778   -1.654683   -0.985085
      6          6           0        0.749124    0.317602    1.328596
      7          8           0        2.052988    0.029770    0.830476
      8          6           0       -1.685732    0.224581    0.820823
      9          8           0       -2.615114   -0.174513   -0.145806
     10          1           0        0.614725    2.661910   -1.712105
     11          1           0        1.593981    1.956358   -0.511706
     12          1           0        1.036864   -0.958616   -1.759209
     13          1           0       -0.958505    0.928797   -1.667575
     14          1           0       -1.024382   -1.753265   -0.823074
     15          1           0       -0.123629   -2.157678    0.675693
     16          1           0        1.211842   -2.605361   -1.351747
     17          1           0        1.880952   -1.352590   -0.387209
     18          1           0        0.537856   -0.298030    2.222767
     19          1           0        0.671688    1.381381    1.614685
     20          1           0        2.720197    0.197473    1.511661
     21          1           0       -1.785479    1.296778    1.078698
     22          1           0       -1.797705   -0.364569    1.755882
     23          1           0       -3.512081    0.039956    0.143036
 ---------------------------------------------------------------------

 SCF Done:  E(UwB97XD) =  -458.107182875     a.u. after    1 cycles

 The electronic state is 2-A.
 Alpha  occ. eigenvalues --  -19.43059 -19.38317 -14.70869 -14.58486 -10.50344
 Alpha  occ. eigenvalues --  -10.49610 -10.47844 -10.47131 -10.45006  -1.28762
 Alpha  occ. eigenvalues --   -1.25129  -1.24591  -1.13888  -1.05568  -0.94584
 Alpha  occ. eigenvalues --   -0.91324  -0.89253  -0.84622  -0.82662  -0.78583
 Alpha  occ. eigenvalues --   -0.77208  -0.76513  -0.74229  -0.72656  -0.69907
 Alpha  occ. eigenvalues --   -0.67934  -0.66745  -0.65316  -0.63823  -0.62668
 Alpha  occ. eigenvalues --   -0.59707  -0.57030  -0.55787  -0.54848  -0.52969
 Alpha  occ. eigenvalues --   -0.48938  -0.36787
 Alpha virt. eigenvalues --   -0.04181  -0.01132   0.00669   0.01386   0.02749
 Alpha virt. eigenvalues --    0.03265   0.05133   0.05715   0.06518   0.07505
 Alpha virt. eigenvalues --    0.07927   0.09661   0.10633   0.11808   0.12559

  Beta  occ. eigenvalues --  -19.43057 -19.38318 -14.70791 -14.57975 -10.50302
  Beta  occ. eigenvalues --  -10.49610 -10.47779 -10.47149 -10.44116  -1.28742
  Beta  occ. eigenvalues --   -1.25067  -1.24474  -1.12397  -1.05232  -0.94475
  Beta  occ. eigenvalues --   -0.91024  -0.87916  -0.84331  -0.82233  -0.78096
  Beta  occ. eigenvalues --   -0.77158  -0.76227  -0.74110  -0.72251  -0.69720
  Beta  occ. eigenvalues --   -0.67406  -0.66560  -0.65190  -0.63195  -0.62237
  Beta  occ. eigenvalues --   -0.58984  -0.56237  -0.55095  -0.53084  -0.50866
  Beta  occ. eigenvalues --   -0.48882
  Beta virt. eigenvalues --   -0.09906  -0.03552  -0.00954   0.00780   0.01684
  Beta virt. eigenvalues --    0.02911   0.03507   0.05351   0.05831   0.06606
  Beta virt. eigenvalues --    0.07729   0.08207   0.09907   0.10844   0.11904

 Mulliken charges and spin densities:
               1          2
     1  N   -0.403125   0.242144
     2  C   -0.190837   0.769136
     3  C   -0.305480  -0.048943
     4  C   -0.085608   0.017367
     5  N   -0.433392   0.014763
     6  C    0.051733  -0.000880
     7  O   -0.533552   0.000550
     8  C    0.073281   0.023604
     9  O   -0.483303  -0.000434
    10  H    0.276475  -0.010920
    11  H    0.268568  -0.002286
    12  H    0.327198   0.022016
    13  H    0.156937  -0.031099
    14  H    0.200398  -0.001036
    15  H    0.166171   0.000100
    16  H    0.331100   0.001537
    17  H    0.338966  -0.001152
    18  H    0.133371  -0.000780
    19  H    0.148999   0.000507
    20  H    0.364341  -0.000066
    21  H    0.135731  -0.002168
    22  H    0.113493   0.008212
    23  H    0.348537  -0.000171
 Sum of Mulliken charges =   1.00000   1.00000

 Dipole moment (field-independent basis, Debye):
    X=              3.4507    Y=             -2.8256    Z=             -0.4242  Tot=              4.4801
  Exact polarizability:  72.134   1.889  74.837  -0.559   0.760  66.445
 Approx polarizability:  74.305   2.131  76.449   1.344   0.965  71.478
                          Isotropic Fermi Contact Couplings
        Atom                 a.u.       MegaHertz       Gauss      10(-4) cm-1
     1  N(14)              0.08641      27.92076       9.96282       9.31336
     2  C(13)              0.17994     202.28801      72.18139      67.47602
     3  C(13)             -0.01077     -12.10394      -4.31899      -4.03744
     4  C(13)              0.03419      38.43979      13.71627      12.82214
     5  N(14)              0.05747      18.56866       6.62576       6.19384
     6  C(13)              0.00035       0.39482       0.14088       0.13170

                      1                      2                      3
                      A                      A                      A
 Frequencies --     89.6782               126.5429               149.7250
 Red. masses --      3.2930                 3.6874                 3.4155
 Frc consts  --      0.0156                 0.0348                 0.0451
 IR Inten    --      1.6805                 1.8924                14.2897

                      4                      5                      6
                      A                      A                      A
 Frequencies --    174.4763               208.7575               264.9080
 Red. masses --      3.2762                 2.1724                 1.8253
 Frc consts  --      0.0588                 0.0558                 0.0755
 IR Inten    --      8.4446                17.3902                 6.6858

                      7                      8                      9
                      A                      A                      A
 Frequencies --    285.7153               293.0553               306.9702
 Red. masses --      1.4218                 1.9416                 1.5199
 Frc consts  --      0.0684                 0.0982                 0.0844
 IR Inten    --     44.1440                52.7491                60.7162

                     10                     11                     12
                      A                      A                      A
 Frequencies --    345.9627               376.4370               405.6571
 Red. masses --      2.2980                 2.0971                 2.1551
 Frc consts  --      0.1621                 0.1751                 0.2089
 IR Inten    --     10.1388                 4.5659                34.6932

                     13                     14                     15
                      A                      A                      A
 Frequencies --    434.8901               442.2958               455.1189
 Red. masses --      2.6269                 1.7131                 1.3389
 Frc consts  --      0.2927                 0.1974                 0.1634
 IR Inten    --     31.5498               104.8952                28.4819

                     16                     17                     18
                      A                      A                      A
 Frequencies --    540.7452               622.0316               655.8278
 Red. masses --      2.3968                 2.6511                 1.2087
 Frc consts  --      0.4129                 0.6044                 0.3063
 IR Inten    --     20.1608                33.4853               218.8025

                     19                     20                     21
                      A                      A                      A
 Frequencies --    748.2496               779.8092               883.6429
 Red. masses --      2.9216                 1.5440                 1.4752
 Frc consts  --      0.9638                 0.5532                 0.6787
 IR Inten    --      0.4846                24.7144                15.7147

                     22                     23                     24
                      A                      A                      A
 Frequencies --    903.4963              1005.4605              1016.3880
 Red. masses --      1.5729                 2.5620                 1.4470
 Frc consts  --      0.7565                 1.5260                 0.8807
 IR Inten    --     25.8720                 6.5265                10.5982

                     25                     26                     27
                      A                      A                      A
 Frequencies --   1043.9027              1061.0110              1091.7271
 Red. masses --      2.0100                 1.6334                 3.2977
 Frc consts  --      1.2905                 1.0834                 2.3158
 IR Inten    --      8.5849                13.6245                77.1647

                     28                     29                     30
                      A                      A                      A
 Frequencies --   1128.1812              1155.6000              1173.0671
 Red. masses --      1.3464                 1.9375                 4.6913
 Frc consts  --      1.0097                 1.5244                 3.8036
 IR Inten    --      7.9977                25.5845                81.2363

                     31                     32                     33
                      A                      A                      A
 Frequencies --   1210.2165              1237.5704              1268.6621
 Red. masses --      1.7533                 1.2985                 1.5384
 Frc consts  --      1.5129                 1.1717                 1.4589
 IR Inten    --     12.5681                41.5151                76.5969

                     34                     35                     36
                      A                      A                      A
 Frequencies --   1277.9848              1313.8645              1319.1467
 Red. masses --      1.0656                 1.6973                 1.7138
 Frc consts  --      1.0254                 1.7263                 1.7571
 IR Inten    --      4.0193                 9.5241                55.9194

                     37                     38                     39
                      A                      A                      A
 Frequencies --   1329.9638              1363.7749              1397.3996
 Red. masses --      1.2405                 1.3065                 1.5660
 Frc consts  --      1.2928                 1.4316                 1.8017
 IR Inten    --      9.2088                 5.1064                 4.4498

                     40                     41                     42
                      A                      A                      A
 Frequencies --   1457.5096              1470.0861              1487.6002
 Red. masses --      1.7097                 1.5352                 1.2646
 Frc consts  --      2.1399                 1.9548                 1.6488
 IR Inten    --     19.1850                 5.0226                76.6736

                     43                     44                     45
                      A                      A                      A
 Frequencies --   1498.3627              1507.9599              1524.7211
 Red. masses --      1.4467                 1.1209                 1.0964
 Frc consts  --      1.9136                 1.5017                 1.5018
 IR Inten    --     30.2292               144.2207                 7.3950

                     46                     47                     48
                      A                      A                      A
 Frequencies --   1533.8275              1589.3908              1669.6164
 Red. masses --      1.1033                 1.0504                 1.2039
 Frc consts  --      1.5294                 1.5633                 1.9773
 IR Inten    --      8.8910                20.5811                92.9502

                     49                     50                     51
                      A                      A                      A
 Frequencies --   1681.5572              2987.5033              3039.2234
 Red. masses --      1.0450                 1.0631                 1.0613
 Frc consts  --      1.7410                 5.5903                 5.7760
 IR Inten    --     52.0389                41.5173                29.1050

                     52                     53                     54
                      A                      A                      A
 Frequencies --   3057.8083              3100.5426              3103.7279
 Red. masses --      1.1044                 1.0681                 1.1039
 Frc consts  --      6.0839                 6.0498                 6.2655
 IR Inten    --     20.4966                 1.1805                16.4307

                     55                     56                     57
                      A                      A                      A
 Frequencies --   3180.8488              3200.1977              3217.5386
 Red. masses --      1.1114                 1.0889                 1.0437
 Frc consts  --      6.6256                 6.5703                 6.3663
 IR Inten    --      2.6898                 2.7898               169.6143

                     58                     59                     60
                      A                      A                      A
 Frequencies --   3251.6142              3490.5181              3552.5933
 Red. masses --      1.0946                 1.0848                 1.0497
 Frc consts  --      6.8185                 7.7875                 7.8060
 IR Inten    --    228.4110               141.8822                45.0209

                     61                     62                     63
                      A                      A                      A
 Frequencies --   3657.8160              3766.1163              3785.1584
 Red. masses --      1.0998                 1.0670                 1.0670
 Frc consts  --      8.6698                 8.9167                 9.0068
 IR Inten    --     63.1710               122.7287               104.9405

                           ! Non-Optimized Parameters !
 Normal termination of Gaussian 16 at Mon Jul 10 21:31:23 2023.
