 Gaussian 16, Revision B.01,
 Gaussian 16:  ES64L-G16RevB.01 20-Dec-2017

 --------------------------------------------------------------
 #T wB97XD//def2svpp Volume=tight Geom=AllCheckpoint Guess=Read
 --------------------------------------------------------------
 Structure from the checkpoint file:  "30.chk"
 -------
 Monomer
 -------
 Charge =  0 Multiplicity = 1

                         Standard orientation:
 ---------------------------------------------------------------------
 Center     Atomic      Atomic             Coordinates (Angstroms)
 Number     Number       Type             X           Y           Z
 ---------------------------------------------------------------------
      1          8           0       -1.716793   -1.376559   -1.044853
      2          6           0       -0.317710   -1.264975   -1.126305
      3          6           0        0.147503   -0.406316    0.049901
      4         35           0       -0.355896    1.448732   -0.222374
      5          6           0       -0.375286   -0.910358    1.411489
      6          8           0       -1.735392   -0.727268    1.582598
      7          7           0        1.675279   -0.432288    0.078855
      8          8           0        2.237148   -0.840325   -0.911645
      9          8           0        2.214739   -0.042324    1.083030
     10          1           0       -2.057324   -1.810974   -1.836640
     11          1           0        0.009639   -0.809094   -2.075067
     12          1           0        0.169442   -2.254795   -1.033000
     13          1           0        0.145450   -0.359519    2.207014
     14          1           0       -0.069947   -1.978876    1.482255
     15          1           0       -2.192528   -1.084642    0.802992
 ---------------------------------------------------------------------

 SCF Done:  E(RwB97XD) =  -3046.83393447     A.U. after    1 cycles

 The electronic state is 1-A.
 Alpha  occ. eigenvalues -- -483.07446 -62.65658 -56.46457 -56.46054 -56.46046
 Alpha  occ. eigenvalues --  -19.30979 -19.30933 -19.30352 -19.25726 -14.70441
 Alpha  occ. eigenvalues --  -10.42381 -10.38698 -10.36802  -8.82608  -6.65249
 Alpha  occ. eigenvalues --   -6.63794  -6.63768  -2.75595  -2.75190  -2.75169
 Alpha  occ. eigenvalues --   -2.74009  -2.74008  -1.36020  -1.18271  -1.16927
 Alpha  occ. eigenvalues --   -1.12927  -0.97946  -0.86809  -0.81329  -0.79172
 Alpha  occ. eigenvalues --   -0.68179  -0.67798  -0.66497  -0.62686  -0.61950
 Alpha  occ. eigenvalues --   -0.61157  -0.57636  -0.57010  -0.52342  -0.50292
 Alpha  occ. eigenvalues --   -0.48289  -0.43078  -0.42019  -0.41525  -0.40623
 Alpha  occ. eigenvalues --   -0.40030  -0.38340  -0.37675  -0.36873
 Alpha virt. eigenvalues --   -0.01929   0.06757   0.09091   0.14669   0.16321
 Alpha virt. eigenvalues --    0.18647   0.19104   0.21453   0.22416   0.26276
 Alpha virt. eigenvalues --    0.26565   0.27916   0.30978   0.37619   0.39243

 Mulliken charges:
               1
     1  O   -0.493026
     2  C    0.110525
     3  C   -0.299883
     4  Br   0.020931
     5  C    0.116128
     6  O   -0.471061
     7  N    0.263834
     8  O   -0.231730
     9  O   -0.214544
    10  H    0.345949
    11  H    0.138005
    12  H    0.123283
    13  H    0.151332
    14  H    0.104561
    15  H    0.335695
 Sum of Mulliken charges =  -0.00000

 Dipole moment (field-independent basis, Debye):
    X=             -2.1735    Y=             -2.6201    Z=             -2.8477  Tot=              4.4383
 Evaluate density.
 Using the total density.
 Monte-Carlo method of calculating molar volume:
 based on  0.001 e/bohr**3 density envelope.
 Number of points per bohr**3 =  100 CutOff= 1.00D-04
 Using the SCF density.
 There are      2017 points.  Will hold      2017 in memory.
 LenV=  1048204819 MDV=  1048576000.
 Box volume = 8215.708 fraction occupied=0.133
 Integrated density= 9.8329825725077782D+01 error= 3.2982572507778229D-01

 Normal termination of Gaussian 16 at Fri Sep 23 14:22:39 2022.
