 Gaussian 16, Revision B.01,
 Gaussian 16:  ES64L-G16RevB.01 20-Dec-2017

 ----------------------------------------------------------------------
 #T wB97XD/def2svpp opt=tight freq int(grid=ultrafine) scf=(verytight,q
 c) Volume=tight
 ----------------------------------------------------------------------
 -------
 Monomer
 -------
 Symbolic Z-matrix:
 Charge =  0 Multiplicity = 1

 SCF Done:  E(RwB97XD) =  -1575.90859851     a.u. after    7 cycles
 SCF Done:  E(RwB97XD) =  -1575.91054384     a.u. after    7 cycles
 SCF Done:  E(RwB97XD) =  -1575.91074149     a.u. after    5 cycles
 SCF Done:  E(RwB97XD) =  -1575.91075702     a.u. after    5 cycles
 SCF Done:  E(RwB97XD) =  -1575.91077757     a.u. after    4 cycles
 SCF Done:  E(RwB97XD) =  -1575.91077822     a.u. after    3 cycles
 SCF Done:  E(RwB97XD) =  -1575.91077843     a.u. after    2 cycles
 SCF Done:  E(RwB97XD) =  -1575.91077843     a.u. after    2 cycles
 SCF Done:  E(RwB97XD) =  -1575.91077843     a.u. after    2 cycles
 Optimization completed.
    -- Stationary point found.

 1\1\GINC-C167\FOpt\RwB97XD\def2SVPP\C5H9Cl3\PETERCHAO1\06-Feb-2023\0\\
 #T wB97XD/def2svpp opt=tight freq int(grid=ultrafine) scf=(verytight,q
 c) Volume=tight\\Monomer\\0,1\C,-0.5779428167,-0.900295487,1.696187752
 3\C,-0.1740257742,-0.0254220664,0.5007498232\C,0.2198308516,-0.8824006
 865,-0.7114583702\Cl,1.6034828713,-1.9813581128,-0.3898859261\C,-1.334
 3860921,0.8986850226,0.0898874378\Cl,-2.8215257013,0.0240681179,-0.411
 0479096\C,0.996423973,0.857290405,0.96380198\Cl,1.600399427,2.00208594
 85,-0.2855169507\H,-1.4222734814,-1.554883345,1.4260587559\H,-0.892144

 Normal termination of Gaussian 16 at Mon Feb  6 10:19:32 2023.

 ---------------------------------------------------------------------
 #T Geom=AllCheck Guess=TCheck SCRF=Check GenChk RwB97XD/def2SVPP Freq
 ---------------------------------------------------------------------
 Structure from the checkpoint file:  "20.chk"
 -------
 Monomer
 -------
 Charge =  0 Multiplicity = 1

                         Standard orientation:
 ---------------------------------------------------------------------
 Center     Atomic      Atomic             Coordinates (Angstroms)
 Number     Number       Type             X           Y           Z
 ---------------------------------------------------------------------
      1          6           0       -0.577829   -0.870231    1.670744
      2          6           0       -0.167603   -0.017902    0.461251
      3          6           0        0.244866   -0.897420   -0.728413
      4         17           0        1.632751   -1.979322   -0.369420
      5          6           0       -1.330057    0.888919    0.018994
      6         17           0       -2.805731   -0.006797   -0.478556
      7          6           0        0.991744    0.882821    0.917501
      8         17           0        1.600685    2.005312   -0.349521
      9          1           0       -1.414692   -1.536457    1.405882
     10          1           0       -0.905291   -0.229247    2.507901
     11          1           0        0.262924   -1.493402    2.015035
     12          1           0        0.548287   -0.275498   -1.583128
     13          1           0       -0.591192   -1.542354   -1.031550
     14          1           0       -1.038217    1.515244   -0.835462
     15          1           0       -1.629506    1.546650    0.849359
     16          1           0        1.847582    0.263319    1.220583
     17          1           0        0.682391    1.508339    1.768362
 ---------------------------------------------------------------------

 SCF Done:  E(RwB97XD) =  -1575.91077843     a.u. after    1 cycles

 The electronic state is 1-A.
 Alpha  occ. eigenvalues -- -101.67375-101.67353-101.66859 -10.36462 -10.36419
 Alpha  occ. eigenvalues --  -10.35670 -10.35135 -10.30241  -9.58139  -9.58119
 Alpha  occ. eigenvalues --   -9.57623  -7.33518  -7.33504  -7.33004  -7.32562
 Alpha  occ. eigenvalues --   -7.32536  -7.32529  -7.32506  -7.32045  -7.32010
 Alpha  occ. eigenvalues --   -0.99873  -0.95477  -0.94849  -0.89009  -0.79258
 Alpha  occ. eigenvalues --   -0.77397  -0.76281  -0.64875  -0.59552  -0.58011
 Alpha  occ. eigenvalues --   -0.56677  -0.54455  -0.52385  -0.50172  -0.48768
 Alpha  occ. eigenvalues --   -0.48393  -0.46484  -0.45710  -0.45010  -0.40027
 Alpha  occ. eigenvalues --   -0.39042  -0.38848  -0.37862  -0.37652  -0.37264
 Alpha virt. eigenvalues --    0.10179   0.10721   0.11345   0.13850   0.16485
 Alpha virt. eigenvalues --    0.17482   0.17798   0.19157   0.19692   0.22026
 Alpha virt. eigenvalues --    0.23517   0.24626   0.25663   0.26633   0.28104

 Mulliken charges:
               1
     1  C   -0.278953
     2  C   -0.272213
     3  C   -0.124451
     4  Cl  -0.151603
     5  C   -0.130870
     6  Cl  -0.147569
     7  C   -0.132238
     8  Cl  -0.149848
     9  H    0.142534
    10  H    0.122627
    11  H    0.140110
    12  H    0.162863
    13  H    0.166654
    14  H    0.167483
    15  H    0.156877
    16  H    0.172327
    17  H    0.156270
 Sum of Mulliken charges =  -0.00000

 Dipole moment (field-independent basis, Debye):
    X=             -0.5631    Y=              0.6850    Z=              1.5218  Tot=              1.7613
  Exact polarizability:  85.256   1.190  77.825   0.402  -2.691  69.527
 Approx polarizability:  93.387   1.709  87.682   1.393  -3.928  81.481
   1 Symmetry operations used in ECPInt.
 ECPInt:  NShTT=    2628 NPrTT=   11486 LenC2=    2576 LenP2D=    8556.
 LDataN:  DoStor=T MaxTD1= 6 Len=  172
 Calling FoFJK, ICntrl=    100127 FMM=F ISym2X=0 I1Cent= 0 IOpClX= 0 NMat=1 NMatS=1 NMatT=0.
 Full mass-weighted force constant matrix:
 Low frequencies ---  -10.2587    0.0020    0.0020    0.0038    1.5069   10.3904
 Low frequencies ---   62.6334   97.6275  123.8251
 Diagonal vibrational polarizability:

                      1                      2                      3
                      A                      A                      A
 Frequencies --     62.6270                97.5992               123.7969
 Red. masses --      9.1837                 5.0763                 8.0366
 Frc consts  --      0.0212                 0.0285                 0.0726
 IR Inten    --      1.3753                 2.7131                 2.5908

                      4                      5                      6
                      A                      A                      A
 Frequencies --    173.2212               220.5659               241.9933
 Red. masses --      3.0359                 3.6931                 4.3386
 Frc consts  --      0.0537                 0.1059                 0.1497
 IR Inten    --      1.2469                 0.7640                 4.1245

                      7                      8                      9
                      A                      A                      A
 Frequencies --    247.2669               326.5795               329.9833
 Red. masses --      1.1940                 3.0085                 2.3815
 Frc consts  --      0.0430                 0.1890                 0.1528
 IR Inten    --      1.1926                 2.4689                 1.7195

                     10                     11                     12
                      A                      A                      A
 Frequencies --    390.4688               452.2641               525.2313
 Red. masses --      3.1238                 3.0114                 3.2161
 Frc consts  --      0.2806                 0.3629                 0.5227
 IR Inten    --      2.0964                 2.3970                 6.5241

                     13                     14                     15
                      A                      A                      A
 Frequencies --    721.8058               785.2297               798.0734
 Red. masses --      4.4353                 4.9045                 4.7866
 Frc consts  --      1.3615                 1.7817                 1.7963
 IR Inten    --      3.0251                37.7800                32.5281

                     16                     17                     18
                      A                      A                      A
 Frequencies --    826.6601               883.2421               901.2846
 Red. masses --      3.8771                 1.7079                 1.9199
 Frc consts  --      1.5610                 0.7850                 0.9189
 IR Inten    --      6.2404                 7.7035                16.0754

                     19                     20                     21
                      A                      A                      A
 Frequencies --    917.3494               984.3469              1006.6027
 Red. masses --      1.6638                 1.5455                 1.5486
 Frc consts  --      0.8249                 0.8823                 0.9245
 IR Inten    --     14.1008                 8.5453                 3.8373

                     22                     23                     24
                      A                      A                      A
 Frequencies --   1118.3345              1151.9341              1185.0542
 Red. masses --      1.5010                 1.2994                 1.4008
 Frc consts  --      1.1061                 1.0159                 1.1591
 IR Inten    --      0.0682                 0.8090                 1.3459

                     25                     26                     27
                      A                      A                      A
 Frequencies --   1241.9624              1266.7930              1311.5572
 Red. masses --      1.3722                 1.4851                 1.3201
 Frc consts  --      1.2470                 1.4041                 1.3379
 IR Inten    --      2.3279                 4.7214                 8.5491

                     28                     29                     30
                      A                      A                      A
 Frequencies --   1346.8219              1354.5976              1356.1256
 Red. masses --      1.4776                 1.4764                 1.6339
 Frc consts  --      1.5792                 1.5962                 1.7704
 IR Inten    --     11.5905                 8.5803                 8.5760

                     31                     32                     33
                      A                      A                      A
 Frequencies --   1420.8255              1471.3842              1478.8879
 Red. masses --      1.2598                 1.0758                 1.0948
 Frc consts  --      1.4985                 1.3722                 1.4108
 IR Inten    --     11.6115                 9.0523                 4.7709

                     34                     35                     36
                      A                      A                      A
 Frequencies --   1480.8020              1496.7830              1501.5455
 Red. masses --      1.0815                 1.0698                 1.0644
 Frc consts  --      1.3972                 1.4121                 1.4139
 IR Inten    --     11.2163                15.6549                15.5717

                     37                     38                     39
                      A                      A                      A
 Frequencies --   3046.1598              3098.5091              3101.6972
 Red. masses --      1.0385                 1.0618                 1.0609
 Frc consts  --      5.6776                 6.0063                 6.0134
 IR Inten    --     11.9097                 6.7557                12.4364

                     40                     41                     42
                      A                      A                      A
 Frequencies --   3108.8668              3139.4665              3158.0421
 Red. masses --      1.0605                 1.1034                 1.1053
 Frc consts  --      6.0388                 6.4078                 6.4946
 IR Inten    --      4.2779                 9.8014                 3.9680

                     43                     44                     45
                      A                      A                      A
 Frequencies --   3177.0649              3178.0702              3184.4839
 Red. masses --      1.1098                 1.1100                 1.1112
 Frc consts  --      6.6001                 6.6052                 6.6394
 IR Inten    --      0.5875                 2.3640                 0.5645

 Optimization completed.
    -- Stationary point found.

 1\1\GINC-C167\Freq\RwB97XD\def2SVPP\C5H9Cl3\PETERCHAO1\06-Feb-2023\0\\
 #T Geom=AllCheck Guess=TCheck SCRF=Check GenChk RwB97XD/def2SVPP Freq\
 \Monomer\\0,1\C,-0.5779428167,-0.900295487,1.6961877523\C,-0.174025774
 2,-0.0254220664,0.5007498232\C,0.2198308516,-0.8824006865,-0.711458370
 2\Cl,1.6034828713,-1.9813581128,-0.3898859261\C,-1.3343860921,0.898685
 0226,0.0898874378\Cl,-2.8215257013,0.0240681179,-0.4110479096\C,0.9964
 23973,0.857290405,0.96380198\Cl,1.600399427,2.0020859485,-0.2855169507
 \H,-1.4222734814,-1.554883345,1.4260587559\H,-0.8921444752,-0.27491740

 Normal termination of Gaussian 16 at Mon Feb  6 10:21:13 2023.
