 Gaussian 16, Revision B.01,
 Gaussian 16:  ES64L-G16RevB.01 20-Dec-2017

 ----------------------------------------------------------------------
 #T wB97XD/def2svpp opt=tight freq int(grid=ultrafine) scf=(verytight,q
 c)
 ----------------------------------------------------------------------
 -------
 comment
 -------
 Symbolic Z-matrix:
 Charge =  1 Multiplicity = 2

 SCF Done:  E(UwB97XD) =  -79.2782964823     a.u. after    9 cycles
 SCF Done:  E(UwB97XD) =  -79.2974224592     a.u. after    4 cycles
 SCF Done:  E(UwB97XD) =  -79.3033129391     a.u. after    4 cycles
 SCF Done:  E(UwB97XD) =  -79.3034237128     a.u. after    3 cycles
 SCF Done:  E(UwB97XD) =  -79.3034320933     a.u. after    3 cycles
 SCF Done:  E(UwB97XD) =  -79.3034383368     a.u. after    3 cycles
 SCF Done:  E(UwB97XD) =  -79.3034462921     a.u. after    3 cycles
 SCF Done:  E(UwB97XD) =  -79.3034476688     a.u. after    3 cycles
 SCF Done:  E(UwB97XD) =  -79.3034476976     a.u. after    2 cycles
 SCF Done:  E(UwB97XD) =  -79.3034477268     a.u. after    2 cycles
 SCF Done:  E(UwB97XD) =  -79.3046757017     a.u. after    5 cycles
 SCF Done:  E(UwB97XD) =  -79.3053511387     a.u. after    3 cycles
 SCF Done:  E(UwB97XD) =  -79.3054539523     a.u. after    4 cycles
 SCF Done:  E(UwB97XD) =  -79.3054939242     a.u. after    4 cycles
 SCF Done:  E(UwB97XD) =  -79.3054975573     a.u. after    3 cycles
 SCF Done:  E(UwB97XD) =  -79.3054982395     a.u. after    3 cycles
 SCF Done:  E(UwB97XD) =  -79.3054982859     a.u. after    2 cycles
 SCF Done:  E(UwB97XD) =  -79.3054982929     a.u. after    2 cycles
 SCF Done:  E(UwB97XD) =  -79.3054982938     a.u. after    2 cycles
 Optimization completed.
    -- Stationary point found.
 Normal termination of Gaussian 16 at Mon Jul 10 19:31:22 2023.

 ---------------------------------------------------------------------
 #T Geom=AllCheck Guess=TCheck SCRF=Check GenChk UwB97XD/def2SVPP Freq
 ---------------------------------------------------------------------
 Structure from the checkpoint file:  "7.chk"
 -------
 comment
 -------
 Charge =  1 Multiplicity = 2

                         Standard orientation:
 ---------------------------------------------------------------------
 Center     Atomic      Atomic             Coordinates (Angstroms)
 Number     Number       Type             X           Y           Z
 ---------------------------------------------------------------------
      1          6           0        0.715137    0.067849   -0.024721
      2          6           0       -0.715137   -0.067849    0.024721
      3          1           0        1.227180   -0.857517   -0.470969
      4          1           0        1.218786   -0.244865    0.958201
      5          1           0        1.134839    1.001737   -0.422427
      6          1           0       -1.134839   -1.001737    0.422427
      7          1           0       -1.218786    0.244865   -0.958201
      8          1           0       -1.227180    0.857517    0.470969
 ---------------------------------------------------------------------

 SCF Done:  E(UwB97XD) =  -79.3054982938     a.u. after    1 cycles

 The electronic state is 2-AG.
 Alpha  occ. eigenvalues --  -10.58390 -10.58364  -1.15849  -1.00654  -0.83029
 Alpha  occ. eigenvalues --   -0.79575  -0.78178  -0.72375  -0.68132
 Alpha virt. eigenvalues --   -0.07710  -0.06495  -0.05001  -0.02075  -0.01451
 Alpha virt. eigenvalues --    0.03985   0.08452   0.21427   0.24041   0.26577
 Alpha virt. eigenvalues --    0.34635   0.42333   0.46082   0.47058   0.47397

  Beta  occ. eigenvalues --  -10.58105 -10.58074  -1.14047  -0.97301  -0.82260
  Beta  occ. eigenvalues --   -0.76763  -0.73545  -0.71402
  Beta virt. eigenvalues --   -0.42469  -0.07234  -0.04218  -0.04113  -0.01195
  Beta virt. eigenvalues --   -0.00277   0.04268   0.09169   0.23678   0.24220
  Beta virt. eigenvalues --    0.27133   0.36079   0.42748   0.48021   0.48991

 Mulliken charges and spin densities:
               1          2
     1  C   -0.391050   0.194341
     2  C   -0.391050   0.194341
     3  H    0.315355   0.158754
     4  H    0.315346   0.158685
     5  H    0.260349  -0.011779
     6  H    0.260349  -0.011779
     7  H    0.315346   0.158685
     8  H    0.315355   0.158754
 Sum of Mulliken charges =   1.00000   1.00000

 Dipole moment (field-independent basis, Debye):
    X=             -0.0000    Y=              0.0000    Z=              0.0000  Tot=              0.0000
  Exact polarizability:  40.713  -3.998  19.784   1.848  -0.760  18.404
 Approx polarizability:  36.977  -4.632  20.637   2.092  -0.554  19.657
                          Isotropic Fermi Contact Couplings
        Atom                 a.u.       MegaHertz       Gauss      10(-4) cm-1
     1  C(13)             -0.00098      -1.10148      -0.39304      -0.36741
     2  C(13)             -0.00098      -1.10148      -0.39304      -0.36741
     3  H(1)               0.07510     335.67382     119.77677     111.96873
     4  H(1)               0.07507     335.53699     119.72794     111.92309
     5  H(1)              -0.00360     -16.09940      -5.74466      -5.37018
     6  H(1)              -0.00360     -16.09940      -5.74466      -5.37018

                      1                      2                      3
                     AU                     AG                     AU
 Frequencies --    289.6543               292.0932               493.6849
 Red. masses --      1.0392                 1.2270                 1.1100
 Frc consts  --      0.0514                 0.0617                 0.1594
 IR Inten    --     98.0547                 0.0000              1592.8212

                      4                      5                      6
                     AU                     AG                     AU
 Frequencies --    670.2435               769.9416               786.0126
 Red. masses --      1.0434                 1.2944                 1.0588
 Frc consts  --      0.2762                 0.4521                 0.3854
 IR Inten    --     17.3038                 0.0000               100.6843

                      7                      8                      9
                     AG                     AG                     AU
 Frequencies --   1111.7034              1169.8279              1222.6226
 Red. masses --      1.4813                 1.3601                 1.0775
 Frc consts  --      1.0787                 1.0966                 0.9490
 IR Inten    --      0.0000                 0.0000                60.3053

                     10                     11                     12
                     AG                     AU                     AG
 Frequencies --   1312.6529              1402.7908              1517.3760
 Red. masses --      1.4756                 1.1234                 1.4653
 Frc consts  --      1.4980                 1.3025                 1.9878
 IR Inten    --      0.0000                26.2425                 0.0000

                     13                     14                     15
                     AG                     AU                     AU
 Frequencies --   2539.0451              2604.0874              2638.8153
 Red. masses --      1.0347                 1.0670                 1.0597
 Frc consts  --      3.9300                 4.2630                 4.3476
 IR Inten    --      0.0000               228.9771               721.1318

                     16                     17                     18
                     AG                     AG                     AU
 Frequencies --   2794.4969              3202.0670              3208.1863
 Red. masses --      1.0970                 1.1029                 1.0915
 Frc consts  --      5.0472                 6.6628                 6.6187
 IR Inten    --      0.0000                 0.0000                44.8826

 Optimization completed.
    -- Stationary point found.
 Normal termination of Gaussian 16 at Mon Jul 10 19:31:44 2023.
