 Gaussian 16, Revision B.01,
 Gaussian 16:  ES64L-G16RevB.01 20-Dec-2017

 ----------------------------------------------------------------------
 #T wB97XD/def2svpp opt=tight freq int(grid=ultrafine) scf=(verytight,q
 c) Volume=tight
 ----------------------------------------------------------------------
 -------
 Monomer
 -------
 Symbolic Z-matrix:
 Charge =  0 Multiplicity = 1

 SCF Done:  E(RwB97XD) =  -154.855224403     a.u. after    7 cycles
 SCF Done:  E(RwB97XD) =  -154.855992824     a.u. after    4 cycles
 SCF Done:  E(RwB97XD) =  -154.856020198     a.u. after    3 cycles
 SCF Done:  E(RwB97XD) =  -154.856028538     a.u. after    3 cycles
 SCF Done:  E(RwB97XD) =  -154.856031828     a.u. after    3 cycles
 SCF Done:  E(RwB97XD) =  -154.856033874     a.u. after    3 cycles
 SCF Done:  E(RwB97XD) =  -154.856033889     a.u. after    2 cycles
 SCF Done:  E(RwB97XD) =  -154.856033891     a.u. after    2 cycles
 Optimization completed.
    -- Stationary point found.
 Normal termination of Gaussian 16 at Mon Feb  6 10:15:51 2023.

 ---------------------------------------------------------------------
 #T Geom=AllCheck Guess=TCheck SCRF=Check GenChk RwB97XD/def2SVPP Freq
 ---------------------------------------------------------------------
 Structure from the checkpoint file:  "8.chk"
 -------
 Monomer
 -------
 Charge =  0 Multiplicity = 1

                         Standard orientation:
 ---------------------------------------------------------------------
 Center     Atomic      Atomic             Coordinates (Angstroms)
 Number     Number       Type             X           Y           Z
 ---------------------------------------------------------------------
      1          6           0       -1.210416   -0.236444   -0.021634
      2          6           0        0.090918    0.551299    0.046907
      3          8           0        1.230139   -0.258419   -0.108232
      4          1           0       -2.085382    0.432814    0.050514
      5          1           0       -1.276055   -0.963964    0.808637
      6          1           0       -1.271281   -0.794996   -0.970950
      7          1           0        0.132984    1.128689    0.994566
      8          1           0        0.131017    1.284689   -0.774782
      9          1           0        1.244594   -0.909006    0.606238
 ---------------------------------------------------------------------

 SCF Done:  E(RwB97XD) =  -154.856033891     a.u. after    1 cycles

 The electronic state is 1-A.
 Alpha  occ. eigenvalues --  -19.24303 -10.33491 -10.28486  -1.10736  -0.83597
 Alpha  occ. eigenvalues --   -0.71156  -0.59084  -0.53999  -0.51878  -0.46473
 Alpha  occ. eigenvalues --   -0.45382  -0.40323  -0.35116
 Alpha virt. eigenvalues --    0.13391   0.17439   0.19146   0.20277   0.21765
 Alpha virt. eigenvalues --    0.24038   0.29671   0.31922   0.51603   0.53823
 Alpha virt. eigenvalues --    0.56556   0.59180   0.66818   0.70348   0.74309

 Mulliken charges:
               1
     1  C   -0.369962
     2  C   -0.008956
     3  O   -0.492448
     4  H    0.120485
     5  H    0.108671
     6  H    0.131165
     7  H    0.091223
     8  H    0.109809
     9  H    0.310012
 Sum of Mulliken charges =  -0.00000

 Dipole moment (field-independent basis, Debye):
    X=             -1.1490    Y=             -0.2672    Z=              1.2432  Tot=              1.7138
  Exact polarizability:  26.540  -0.571  26.288   0.249  -0.932  24.819
 Approx polarizability:  25.118  -1.457  25.876  -0.317  -1.255  25.347
   1 Symmetry operations used in ECPInt.
 ECPInt:  NShTT=     465 NPrTT=    1887 LenC2=     466 LenP2D=    1694.
 LDataN:  DoStor=T MaxTD1= 6 Len=  172
 Calling FoFJK, ICntrl=    100127 FMM=F ISym2X=0 I1Cent= 0 IOpClX= 0 NMat=1 NMatS=1 NMatT=0.
 Full mass-weighted force constant matrix:
 Low frequencies ---  -18.8471   -8.7166   -6.2221   -0.0017   -0.0012   -0.0012
 Low frequencies ---  277.9830  329.6782  435.5660
 Diagonal vibrational polarizability:

                      1                      2                      3
                      A                      A                      A
 Frequencies --    277.9828               329.6782               435.5659
 Red. masses --      1.0765                 1.1324                 2.6122
 Frc consts  --      0.0490                 0.0725                 0.2920
 IR Inten    --      9.9739               120.1974                25.3118

                      4                      5                      6
                      A                      A                      A
 Frequencies --    817.0439               916.5702              1080.9413
 Red. masses --      1.0817                 2.0566                 1.5104
 Frc consts  --      0.4255                 1.0180                 1.0398
 IR Inten    --      2.9494                 4.9868                20.1991

                      7                      8                      9
                      A                      A                      A
 Frequencies --   1125.7382              1172.5573              1295.6730
 Red. masses --      1.9834                 2.5075                 1.2594
 Frc consts  --      1.4809                 2.0312                 1.2456
 IR Inten    --     83.9156                42.5331                12.5458

                     10                     11                     12
                      A                      A                      A
 Frequencies --   1394.8336              1410.9648              1449.0943
 Red. masses --      1.2334                 1.2084                 1.3468
 Frc consts  --      1.4139                 1.4174                 1.6662
 IR Inten    --      1.5793                 7.8174                61.9670

                     13                     14                     15
                      A                      A                      A
 Frequencies --   1485.2891              1493.1276              1522.4250
 Red. masses --      1.0490                 1.0529                 1.0970
 Frc consts  --      1.3635                 1.3830                 1.4981
 IR Inten    --     11.2398                 1.6533                 1.0856

                     16                     17                     18
                      A                      A                      A
 Frequencies --   2994.4237              3028.1682              3106.0645
 Red. masses --      1.0727                 1.0392                 1.0980
 Frc consts  --      5.6669                 5.6147                 6.2413
 IR Inten    --     77.8746                15.1575                 3.5433

                     19                     20                     21
                      A                      A                      A
 Frequencies --   3125.0929              3140.0065              3771.2286
 Red. masses --      1.1011                 1.1059                 1.0660
 Frc consts  --      6.3357                 6.4241                 8.9325
 IR Inten    --     49.7887                21.6200                21.7185

 Optimization completed.
    -- Stationary point found.
 Normal termination of Gaussian 16 at Mon Feb  6 10:16:03 2023.
