 Gaussian 16, Revision B.01,
 Gaussian 16:  ES64L-G16RevB.01 20-Dec-2017

 --------------------------------------------------------------
 #T wB97XD//def2svpp Volume=tight Geom=AllCheckpoint Guess=Read
 --------------------------------------------------------------
 Structure from the checkpoint file:  "monomer.chk"
 -------
 Monomer
 -------
 Charge =  0 Multiplicity = 1

                         Standard orientation:
 ---------------------------------------------------------------------
 Center     Atomic      Atomic             Coordinates (Angstroms)
 Number     Number       Type             X           Y           Z
 ---------------------------------------------------------------------
      1          6           0        0.962293   -0.819507   -1.261482
      2          6           0        0.569616   -0.030120    0.000001
      3          6           0        0.962301   -0.819454    1.261511
      4          6           0        1.283128    1.324544   -0.000029
      5          6           0       -0.952766    0.223004   -0.000000
      6          7           0       -1.740164   -0.892799   -0.000002
      7          8           0       -1.435796    1.335788   -0.000001
      8          1           0        0.511815   -1.827419   -1.286510
      9          1           0        2.058548   -0.947753   -1.300094
     10          1           0        0.649675   -0.286022   -2.175769
     11          1           0        0.649724   -0.285912    2.175780
     12          1           0        2.058552   -0.947735    1.300101
     13          1           0        0.511788   -1.827350    1.286605
     14          1           0        1.008029    1.916911   -0.887303
     15          1           0        2.377285    1.174660   -0.000013
     16          1           0        1.008008    1.916961    0.887204
     17          1           0       -1.368529   -1.831932    0.000013
     18          1           0       -2.744811   -0.761929    0.000008
 ---------------------------------------------------------------------

 SCF Done:  E(RwB97XD) =  -326.795472867     A.U. after    1 cycles

 The electronic state is 1-A.
 Alpha  occ. eigenvalues --  -19.21287 -14.45731 -10.39286 -10.31732 -10.29339
 Alpha  occ. eigenvalues --  -10.29338 -10.27556  -1.12238  -0.99129  -0.91136
 Alpha  occ. eigenvalues --   -0.78453  -0.77311  -0.71941  -0.65061  -0.61546
 Alpha  occ. eigenvalues --   -0.56482  -0.53913  -0.52519  -0.50622  -0.49761
 Alpha  occ. eigenvalues --   -0.47175  -0.46188  -0.44940  -0.43926  -0.41648
 Alpha  occ. eigenvalues --   -0.41501  -0.34948  -0.32751
 Alpha virt. eigenvalues --    0.11065   0.11407   0.15472   0.17959   0.18309
 Alpha virt. eigenvalues --    0.19250   0.20409   0.20715   0.23996   0.24412
 Alpha virt. eigenvalues --    0.25502   0.26998   0.27098   0.29070   0.32011

 Mulliken charges:
               1
     1  C   -0.270057
     2  C   -0.339297
     3  C   -0.270055
     4  C   -0.240014
     5  C    0.212122
     6  N   -0.424883
     7  O   -0.252177
     8  H    0.102271
     9  H    0.122853
    10  H    0.131267
    11  H    0.131267
    12  H    0.122853
    13  H    0.102270
    14  H    0.126301
    15  H    0.106309
    16  H    0.126303
    17  H    0.253757
    18  H    0.258910
 Sum of Mulliken charges =   0.00000

 Dipole moment (field-independent basis, Debye):
    X=              0.6038    Y=             -3.5192    Z=              0.0000  Tot=              3.5707
 Evaluate density.
 Using the total density.
 Monte-Carlo method of calculating molar volume:
 based on  0.001 e/bohr**3 density envelope.
 Number of points per bohr**3 =  100 CutOff= 1.00D-04
 Using the SCF density.
 There are      1752 points.  Will hold      1752 in memory.
 LenV=  1048331100 MDV=  1048576000.
 Box volume = 5381.088 fraction occupied=0.188
 Integrated density= 4.2625258688328756D+01 error=-1.3374741311671244D+01

 1\1\GINC-C419\SP\RwB97XD\def2SVPP\C5H11N1O1\PETERCHAO1\02-Apr-2024\0\\
 #T wB97XD//def2svpp Volume=tight Geom=AllCheckpoint Guess=Read\\Monome
 r\\0,1\C,0,-1.0939590702,0.7671849282,-1.2598385254\C,0,-0.634646125,0
 .0116582003,-0.0001254477\C,0,-1.0926651027,0.7620013695,1.2631494871\
 C,0,-1.2298472165,-1.3989949609,-0.0027180378\C,0,0.9037920788,-0.1105
 108605,-0.0011654346\N,0,1.5930108148,1.0684656641,0.0008756606\O,0,1.
 4801015426,-1.1779696941,-0.0036333423\H,0,-0.7312266299,1.8099391982,
 -1.2829326635\H,0,-2.1971811313,0.8014072941,-1.2978134368\H,0,-0.7373

 Normal termination of Gaussian 16 at Tue Apr  2 13:49:19 2024.
