 Gaussian 16, Revision B.01,
 Gaussian 16:  ES64L-G16RevB.01 20-Dec-2017

 ----------------------------------------------------------------------
 #T wB97XD/def2svpp opt=tight freq int(grid=ultrafine) scf=(verytight,q
 c)
 ----------------------------------------------------------------------
 --------------
 Comment gs min
 --------------
 Symbolic Z-matrix:
 Charge =  0 Multiplicity = 1

 SCF Done:  E(RwB97XD) =  -362.560220128     a.u. after    8 cycles
 SCF Done:  E(RwB97XD) =  -362.564024546     a.u. after    6 cycles
 SCF Done:  E(RwB97XD) =  -362.564055138     a.u. after    6 cycles
 SCF Done:  E(RwB97XD) =  -362.552252109     a.u. after   17 cycles
 SCF Done:  E(RwB97XD) =  -362.564198218     a.u. after    5 cycles
 SCF Done:  E(RwB97XD) =  -362.564202250     a.u. after    3 cycles
 SCF Done:  E(RwB97XD) =  -362.564202422     a.u. after    2 cycles
 SCF Done:  E(RwB97XD) =  -362.564202460     a.u. after    2 cycles
 SCF Done:  E(RwB97XD) =  -362.564202467     a.u. after    2 cycles
 SCF Done:  E(RwB97XD) =  -362.564202469     a.u. after    2 cycles
 SCF Done:  E(RwB97XD) =  -362.564202470     a.u. after    2 cycles
 SCF Done:  E(RwB97XD) =  -362.564202469     a.u. after    2 cycles
 SCF Done:  E(RwB97XD) =  -362.564202470     a.u. after    2 cycles
 Optimization completed.
    -- Stationary point found.
 Normal termination of Gaussian 16 at Thu Aug  4 16:18:34 2022.

 ---------------------------------------------------------------------
 #T Geom=AllCheck Guess=TCheck SCRF=Check GenChk RwB97XD/def2SVPP Freq
 ---------------------------------------------------------------------
 Structure from the checkpoint file:  "/scratch/user/peterchao1/peterchao1/6097807_1659647584000000673000348/Gau-203745.chk"
 --------------
 Comment gs min
 --------------
 Charge =  0 Multiplicity = 1

                         Standard orientation:
 ---------------------------------------------------------------------
 Center     Atomic      Atomic             Coordinates (Angstroms)
 Number     Number       Type             X           Y           Z
 ---------------------------------------------------------------------
      1          6           0       -1.073549    1.433793    0.000002
      2          6           0       -0.553789    0.002788    0.000000
      3          6           0       -0.969857   -0.751000    1.264261
      4          6           0       -0.969855   -0.750996   -1.264264
      5          7           0        0.982512    0.028591    0.000001
      6          8           0        1.542785    1.099652    0.000001
      7          8           0        1.541156   -1.045647    0.000000
      8          1           0       -2.176421    1.407209    0.000002
      9          1           0       -0.736935    1.985100   -0.891503
     10          1           0       -0.736935    1.985098    0.891508
     11          1           0       -2.070194   -0.810681    1.305004
     12          1           0       -0.619446   -0.225726    2.169120
     13          1           0       -0.558621   -1.772145    1.265320
     14          1           0       -2.070192   -0.810677   -1.305009
     15          1           0       -0.558619   -1.772141   -1.265326
     16          1           0       -0.619443   -0.225719   -2.169120
 ---------------------------------------------------------------------

 SCF Done:  E(RwB97XD) =  -362.564202470     a.u. after    1 cycles

 The electronic state is 1-A.
 Alpha  occ. eigenvalues --  -19.28601 -19.28300 -14.67292 -10.37151 -10.30728
 Alpha  occ. eigenvalues --  -10.30726 -10.30212  -1.33188  -1.15379  -0.95734
 Alpha  occ. eigenvalues --   -0.80607  -0.79980  -0.78668  -0.65202  -0.63367
 Alpha  occ. eigenvalues --   -0.61278  -0.59888  -0.54850  -0.54171  -0.51050
 Alpha  occ. eigenvalues --   -0.49490  -0.49288  -0.47013  -0.44450  -0.44450
 Alpha  occ. eigenvalues --   -0.39388  -0.38174  -0.37728
 Alpha virt. eigenvalues --    0.01710   0.12154   0.14969   0.17999   0.19036
 Alpha virt. eigenvalues --    0.19122   0.19381   0.22982   0.23233   0.24134
 Alpha virt. eigenvalues --    0.25656   0.26161   0.28920   0.29908   0.38222

 Mulliken charges:
               1
     1  C   -0.243667
     2  C   -0.207960
     3  C   -0.268675
     4  C   -0.268675
     5  N    0.247109
     6  O   -0.242652
     7  O   -0.253574
     8  H    0.124507
     9  H    0.136673
    10  H    0.136673
    11  H    0.131839
    12  H    0.135950
    13  H    0.152332
    14  H    0.131839
    15  H    0.152332
    16  H    0.135950
 Sum of Mulliken charges =  -0.00000

 Dipole moment (field-independent basis, Debye):
    X=             -3.7396    Y=             -0.0833    Z=             -0.0000  Tot=              3.7405
  Exact polarizability:  54.746   0.401  61.000  -0.000   0.000  49.078
 Approx polarizability:  58.677   0.539  76.997   0.000   0.000  50.768
   1 Symmetry operations used in ECPInt.
 ECPInt:  NShTT=    1830 NPrTT=    7378 LenC2=    1825 LenP2D=    6006.
 LDataN:  DoStor=T MaxTD1= 6 Len=  172
 Calling FoFJK, ICntrl=    100127 FMM=F ISym2X=0 I1Cent= 0 IOpClX= 0 NMat=1 NMatS=1 NMatT=0.
 Full mass-weighted force constant matrix:
 Low frequencies ---   -8.3545    0.0012    0.0013    0.0014    4.1472    5.9481
 Low frequencies ---   40.5790  209.0481  271.6669
 Diagonal vibrational polarizability:

                      1                      2                      3
                      A                      A                      A
 Frequencies --     40.5781               209.0466               271.6647
 Red. masses --      7.0957                 1.0843                 1.0486
 Frc consts  --      0.0069                 0.0279                 0.0456
 IR Inten    --      0.0091                 0.4974                 0.0100

                      4                      5                      6
                      A                      A                      A
 Frequencies --    276.2964               301.8105               302.6005
 Red. masses --      1.4823                 2.9831                 1.4738
 Frc consts  --      0.0667                 0.1601                 0.0795
 IR Inten    --      2.0792                 1.6188                 2.4405

                      7                      8                      9
                      A                      A                      A
 Frequencies --    373.4254               387.6017               397.7405
 Red. masses --      3.0200                 2.9630                 2.3168
 Frc consts  --      0.2481                 0.2623                 0.2159
 IR Inten    --      0.2742                 4.9514                 1.3996

                     10                     11                     12
                      A                      A                      A
 Frequencies --    550.2809               598.4776               776.8452
 Red. masses --      4.5507                 3.1969                 6.6653
 Frc consts  --      0.8119                 0.6746                 2.3699
 IR Inten    --      2.2498                 7.0470                 3.1294

                     13                     14                     15
                      A                      A                      A
 Frequencies --    832.1617               916.9881               958.3950
 Red. masses --      3.0299                 6.9417                 1.4674
 Frc consts  --      1.2362                 3.4391                 0.7941
 IR Inten    --      3.0966                32.3029                 1.7146

                     16                     17                     18
                      A                      A                      A
 Frequencies --    960.2454               983.8284              1062.8374
 Red. masses --      1.5666                 1.2068                 1.4416
 Frc consts  --      0.8511                 0.6882                 0.9595
 IR Inten    --      1.4246                 0.0345                 0.0801

                     19                     20                     21
                      A                      A                      A
 Frequencies --   1065.0946              1236.0477              1287.8826
 Red. masses --      1.4107                 2.2110                 2.7612
 Frc consts  --      0.9429                 1.9903                 2.6984
 IR Inten    --      0.2862                18.6895                 5.9041

                     22                     23                     24
                      A                      A                      A
 Frequencies --   1309.1473              1406.7188              1413.2234
 Red. masses --      2.6423                 1.3063                 1.3354
 Frc consts  --      2.6681                 1.5230                 1.5714
 IR Inten    --     10.9822                12.8561                28.3283

                     25                     26                     27
                      A                      A                      A
 Frequencies --   1433.1692              1466.4701              1476.6981
 Red. masses --      1.3188                 1.0441                 1.0444
 Frc consts  --      1.5960                 1.3230                 1.3418
 IR Inten    --      4.2828                 0.0609                 0.1208

                     28                     29                     30
                      A                      A                      A
 Frequencies --   1484.3229              1493.0199              1495.8538
 Red. masses --      1.0454                 1.0558                 1.0862
 Frc consts  --      1.3571                 1.3866                 1.4320
 IR Inten    --      0.0164                 9.7476                10.7707

                     31                     32                     33
                      A                      A                      A
 Frequencies --   1507.6942              1523.8259              1764.4118
 Red. masses --      2.2160                 1.6378                13.7880
 Frc consts  --      2.9678                 2.2407                25.2901
 IR Inten    --     23.4761                98.5021               274.1724

                     34                     35                     36
                      A                      A                      A
 Frequencies --   3047.0723              3048.5222              3056.2690
 Red. masses --      1.0371                 1.0377                 1.0386
 Frc consts  --      5.6733                 5.6821                 5.7157
 IR Inten    --     15.4553                 3.9134                10.1985

                     37                     38                     39
                      A                      A                      A
 Frequencies --   3141.6656              3142.5100              3151.0904
 Red. masses --      1.1057                 1.1054                 1.1041
 Frc consts  --      6.4297                 6.4317                 6.4589
 IR Inten    --      5.6648                 6.3035                14.3037

                     40                     41                     42
                      A                      A                      A
 Frequencies --   3163.1314              3165.8703              3166.7941
 Red. masses --      1.1060                 1.1052                 1.1061
 Frc consts  --      6.5199                 6.5262                 6.5354
 IR Inten    --      0.4114                 6.3755                 7.8554

 Optimization completed.
    -- Stationary point found.
 Normal termination of Gaussian 16 at Thu Aug  4 16:19:45 2022.
