 Gaussian 16, Revision B.01,
 Gaussian 16:  ES64L-G16RevB.01 20-Dec-2017

 ----------------------------------------------------------------------
 #T wB97XD/def2svpp opt=tight freq int(grid=ultrafine) scf=(verytight,q
 c)
 ----------------------------------------------------------------------
 -------
 comment
 -------
 Symbolic Z-matrix:
 Charge =  1 Multiplicity = 2

 SCF Done:  E(UwB97XD) =  -354.250567179     a.u. after   10 cycles
 SCF Done:  E(UwB97XD) =  -354.270645145     a.u. after    8 cycles
 SCF Done:  E(UwB97XD) =  -354.280720798     a.u. after   11 cycles
 SCF Done:  E(UwB97XD) =  -354.285858966     a.u. after    9 cycles
 SCF Done:  E(UwB97XD) =  -354.295068723     a.u. after   13 cycles
 SCF Done:  E(UwB97XD) =  -354.298371548     a.u. after    8 cycles
 SCF Done:  E(UwB97XD) =  -354.298876901     a.u. after    7 cycles
 SCF Done:  E(UwB97XD) =  -354.298954824     a.u. after    7 cycles
 SCF Done:  E(UwB97XD) =  -354.299099196     a.u. after    5 cycles
 SCF Done:  E(UwB97XD) =  -354.299105408     a.u. after    3 cycles
 SCF Done:  E(UwB97XD) =  -354.299106990     a.u. after    2 cycles
 SCF Done:  E(UwB97XD) =  -354.299107028     a.u. after    2 cycles
 SCF Done:  E(UwB97XD) =  -354.299107034     a.u. after    2 cycles
 SCF Done:  E(UwB97XD) =  -354.299107035     a.u. after    2 cycles
 SCF Done:  E(UwB97XD) =  -354.299107028     a.u. after    2 cycles
 SCF Done:  E(UwB97XD) =  -354.299107035     a.u. after    2 cycles
 SCF Done:  E(UwB97XD) =  -354.299107035     a.u. after    2 cycles
 SCF Done:  E(UwB97XD) =  -354.299107035     a.u. after    2 cycles
 SCF Done:  E(UwB97XD) =  -354.299107035     a.u. after    2 cycles
 Optimization completed.
    -- Stationary point found.
 Normal termination of Gaussian 16 at Mon Jul 10 19:52:57 2023.

 ---------------------------------------------------------------------
 #T Geom=AllCheck Guess=TCheck SCRF=Check GenChk UwB97XD/def2SVPP Freq
 ---------------------------------------------------------------------
 Structure from the checkpoint file:  "34.chk"
 -------
 comment
 -------
 Charge =  1 Multiplicity = 2

                         Standard orientation:
 ---------------------------------------------------------------------
 Center     Atomic      Atomic             Coordinates (Angstroms)
 Number     Number       Type             X           Y           Z
 ---------------------------------------------------------------------
      1          6           0       -2.958549   -0.705416   -0.012335
      2          6           0       -1.436433   -0.861545   -0.227557
      3          6           0       -0.727458    0.440717   -0.002487
      4          6           0       -0.697349    1.398472   -1.146980
      5          6           0       -0.816631    1.037483    1.362611
      6          6           0        1.479064   -0.271373    0.000739
      7          6           0        1.465324   -1.238865   -1.136483
      8          6           0        2.188422    1.021873   -0.232863
      9          6           0        1.582099   -0.851049    1.373158
     10          1           0       -3.198693   -0.439378    1.029280
     11          1           0       -3.446829   -1.666576   -0.236982
     12          1           0       -3.389451    0.056483   -0.682175
     13          1           0       -1.258478   -1.224095   -1.251635
     14          1           0       -1.073977   -1.626707    0.479110
     15          1           0       -1.749957    1.696121   -1.334793
     16          1           0       -0.337160    0.942344   -2.082685
     17          1           0       -0.138631    2.320227   -0.928887
     18          1           0       -1.778432    1.589188    1.406232
     19          1           0       -0.032442    1.786085    1.557658
     20          1           0       -0.834755    0.284479    2.164367
     21          1           0        1.108202   -0.793660   -2.078549
     22          1           0        0.910246   -2.161873   -0.915208
     23          1           0        2.522532   -1.527799   -1.313354
     24          1           0        1.934503    1.796056    0.508380
     25          1           0        2.057109    1.410885   -1.253067
     26          1           0        3.270523    0.812487   -0.100778
     27          1           0        0.832412   -1.633345    1.570893
     28          1           0        1.560759   -0.091375    2.168051
     29          1           0        2.571589   -1.351325    1.427315
 ---------------------------------------------------------------------

 SCF Done:  E(UwB97XD) =  -354.299107035     a.u. after    1 cycles

 The electronic state is 2-A.
 Alpha  occ. eigenvalues --  -10.54381 -10.54160 -10.45880 -10.45539 -10.45528
 Alpha  occ. eigenvalues --  -10.45523 -10.45520 -10.45495 -10.43238  -1.11199
 Alpha  occ. eigenvalues --   -1.08038  -0.99256  -0.96704  -0.95736  -0.94918
 Alpha  occ. eigenvalues --   -0.88363  -0.80750  -0.78203  -0.74717  -0.72057
 Alpha  occ. eigenvalues --   -0.71541  -0.70517  -0.70284  -0.67012  -0.65529
 Alpha  occ. eigenvalues --   -0.64833  -0.64111  -0.63031  -0.62498  -0.62341
 Alpha  occ. eigenvalues --   -0.61631  -0.61159  -0.60464  -0.60300  -0.57871
 Alpha  occ. eigenvalues --   -0.57431  -0.47333
 Alpha virt. eigenvalues --   -0.15252  -0.02765   0.01099   0.01205   0.01671
 Alpha virt. eigenvalues --    0.03449   0.03675   0.04183   0.04942   0.06233
 Alpha virt. eigenvalues --    0.07152   0.07460   0.08109   0.08774   0.08923

  Beta  occ. eigenvalues --  -10.53918 -10.53725 -10.45890 -10.45551 -10.45539
  Beta  occ. eigenvalues --  -10.45533 -10.45532 -10.45507 -10.43170  -1.09959
  Beta  occ. eigenvalues --   -1.07094  -0.98966  -0.96476  -0.95502  -0.94693
  Beta  occ. eigenvalues --   -0.87893  -0.79489  -0.77315  -0.72777  -0.71839
  Beta  occ. eigenvalues --   -0.71231  -0.70192  -0.69892  -0.66150  -0.65082
  Beta  occ. eigenvalues --   -0.64390  -0.63769  -0.62587  -0.62358  -0.61938
  Beta  occ. eigenvalues --   -0.61417  -0.60751  -0.60100  -0.59973  -0.57635
  Beta  occ. eigenvalues --   -0.57310
  Beta virt. eigenvalues --   -0.23888  -0.08747  -0.02746   0.01112   0.01215
  Beta virt. eigenvalues --    0.01685   0.03497   0.03744   0.04531   0.05072
  Beta virt. eigenvalues --    0.06395   0.07245   0.07620   0.08296   0.08880

 Mulliken charges and spin densities:
               1          2
     1  C   -0.331409   0.036170
     2  C   -0.216570  -0.031987
     3  C   -0.219505   0.449730
     4  C   -0.297821  -0.028594
     5  C   -0.308721  -0.029590
     6  C   -0.245852   0.456105
     7  C   -0.293667  -0.029644
     8  C   -0.297176  -0.029463
     9  C   -0.298323  -0.029686
    10  H    0.155561  -0.001696
    11  H    0.176568   0.003659
    12  H    0.152276  -0.001712
    13  H    0.152771   0.001930
    14  H    0.151749   0.009435
    15  H    0.198375   0.034993
    16  H    0.170781   0.007384
    17  H    0.173019   0.002200
    18  H    0.201833   0.034347
    19  H    0.171988   0.008457
    20  H    0.173905   0.001714
    21  H    0.170647   0.007437
    22  H    0.173687   0.002228
    23  H    0.198241   0.036017
    24  H    0.171137   0.007217
    25  H    0.173092   0.002248
    26  H    0.198323   0.035679
    27  H    0.174637   0.007290
    28  H    0.172304   0.002320
    29  H    0.198150   0.035810
 Sum of Mulliken charges =   1.00000   1.00000

 Dipole moment (field-independent basis, Debye):
    X=              1.1989    Y=              0.2335    Z=              0.0085  Tot=              1.2215
  Exact polarizability: 139.601  -9.294  93.927  -0.105  -0.019  89.494
 Approx polarizability: 122.475  -6.160 101.094   0.107  -0.074  98.559
                          Isotropic Fermi Contact Couplings
        Atom                 a.u.       MegaHertz       Gauss      10(-4) cm-1
     1  C(13)              0.02608      29.31736      10.46116       9.77922
     2  C(13)             -0.01200     -13.49495      -4.81533      -4.50143
     3  C(13)              0.06305      70.88411      25.29321      23.64439
     4  C(13)             -0.01009     -11.33889      -4.04600      -3.78224
     5  C(13)             -0.01045     -11.74580      -4.19119      -3.91798
     6  C(13)              0.06951      78.14171      27.88291      26.06527

                      1                      2                      3
                      A                      A                      A
 Frequencies --     84.5655               114.2374               171.0955
 Red. masses --      2.8099                 1.9111                 2.6715
 Frc consts  --      0.0118                 0.0147                 0.0461
 IR Inten    --      0.0236                 0.0027                 0.1992

                      4                      5                      6
                      A                      A                      A
 Frequencies --    182.7041               215.3092               222.3763
 Red. masses --      3.8610                 2.7451                 1.6785
 Frc consts  --      0.0759                 0.0750                 0.0489
 IR Inten    --      0.1242                 0.0434                 0.0885

                      7                      8                      9
                      A                      A                      A
 Frequencies --    227.0395               237.7056               247.9124
 Red. masses --      1.8199                 1.1990                 1.2459
 Frc consts  --      0.0553                 0.0399                 0.0451
 IR Inten    --      0.0014                 0.2897                 0.1994

                     10                     11                     12
                      A                      A                      A
 Frequencies --    264.9724               287.5916               296.1712
 Red. masses --      1.1080                 1.2679                 1.2891
 Frc consts  --      0.0458                 0.0618                 0.0666
 IR Inten    --      0.9306                 0.4643                 0.4010

                     13                     14                     15
                      A                      A                      A
 Frequencies --    313.5539               335.8919               400.9113
 Red. masses --      1.3747                 1.4829                 2.1351
 Frc consts  --      0.0796                 0.0986                 0.2022
 IR Inten    --      0.1068                 0.6831                 0.2295

                     16                     17                     18
                      A                      A                      A
 Frequencies --    405.9797               416.3756               424.8912
 Red. masses --      2.1234                 2.1890                 2.0837
 Frc consts  --      0.2062                 0.2236                 0.2216
 IR Inten    --      0.3782                 0.0237                 0.2456

                     19                     20                     21
                      A                      A                      A
 Frequencies --    446.2447               535.8687               770.7675
 Red. masses --      1.9074                 2.1954                 3.0219
 Frc consts  --      0.2238                 0.3714                 1.0578
 IR Inten    --      3.7086                 7.4594                19.3304

                     22                     23                     24
                      A                      A                      A
 Frequencies --    800.1356               835.3048               884.2224
 Red. masses --      3.3447                 1.1748                 1.2697
 Frc consts  --      1.2617                 0.4830                 0.5849
 IR Inten    --     17.3211                 1.1306                 0.8228

                     25                     26                     27
                      A                      A                      A
 Frequencies --    888.0542               893.2649               953.2619
 Red. masses --      1.2636                 1.2175                 1.5201
 Frc consts  --      0.5871                 0.5724                 0.8139
 IR Inten    --      1.0367                 4.3907                13.8749

                     28                     29                     30
                      A                      A                      A
 Frequencies --    981.2980               997.3093              1003.9551
 Red. masses --      1.2188                 1.3015                 3.0602
 Frc consts  --      0.6915                 0.7627                 1.8173
 IR Inten    --      1.1431                 1.2942                 4.1354

                     31                     32                     33
                      A                      A                      A
 Frequencies --   1026.0827              1027.1929              1048.5691
 Red. masses --      1.5562                 1.5531                 1.4334
 Frc consts  --      0.9653                 0.9655                 0.9285
 IR Inten    --      0.2271                 0.2478                30.0554

                     34                     35                     36
                      A                      A                      A
 Frequencies --   1074.7704              1099.1741              1139.7333
 Red. masses --      1.5414                 1.8234                 1.7639
 Frc consts  --      1.0490                 1.2980                 1.3500
 IR Inten    --     13.2759               333.3829                41.5294

                     37                     38                     39
                      A                      A                      A
 Frequencies --   1258.4942              1299.2721              1311.4991
 Red. masses --      1.6093                 2.0403                 2.2426
 Frc consts  --      1.5017                 2.0293                 2.2726
 IR Inten    --      6.6928                18.1334                16.7369

                     40                     41                     42
                      A                      A                      A
 Frequencies --   1312.6177              1339.4326              1364.7814
 Red. masses --      2.2624                 1.5536                 1.2882
 Frc consts  --      2.2967                 1.6422                 1.4137
 IR Inten    --     11.2826                18.8242                 7.1706

                     43                     44                     45
                      A                      A                      A
 Frequencies --   1391.0732              1396.2101              1397.9863
 Red. masses --      1.2722                 1.2970                 1.2513
 Frc consts  --      1.4504                 1.4897                 1.4409
 IR Inten    --     11.4224                19.5043                62.5738

                     46                     47                     48
                      A                      A                      A
 Frequencies --   1399.8040              1412.2946              1418.5245
 Red. masses --      1.3297                 1.1970                 1.1684
 Frc consts  --      1.5351                 1.4067                 1.3852
 IR Inten    --     82.9328                 5.7130                 4.0789

                     49                     50                     51
                      A                      A                      A
 Frequencies --   1440.2774              1453.4020              1460.6028
 Red. masses --      1.0620                 1.0662                 1.0619
 Frc consts  --      1.2980                 1.3270                 1.3348
 IR Inten    --      2.4362                 5.5278                19.2447

                     52                     53                     54
                      A                      A                      A
 Frequencies --   1467.3569              1480.4959              1481.8325
 Red. masses --      1.1228                 1.0516                 1.1711
 Frc consts  --      1.4243                 1.3581                 1.5151
 IR Inten    --      7.9349                 4.2392                10.5348

                     55                     56                     57
                      A                      A                      A
 Frequencies --   1483.7306              1485.9360              1490.5630
 Red. masses --      1.1506                 1.1833                 1.0891
 Frc consts  --      1.4923                 1.5393                 1.4257
 IR Inten    --      0.1031                 0.8455                 9.5737

                     58                     59                     60
                      A                      A                      A
 Frequencies --   1493.6942              1502.9003              1509.8665
 Red. masses --      1.0451                 1.1224                 1.0785
 Frc consts  --      1.3739                 1.4936                 1.4487
 IR Inten    --     16.3936                 4.9959                22.0940

                     61                     62                     63
                      A                      A                      A
 Frequencies --   1513.6373              3012.2376              3012.7383
 Red. masses --      1.1033                 1.0506                 1.0505
 Frc consts  --      1.4894                 5.6164                 5.6178
 IR Inten    --     11.9355                 2.3088                 2.7859

                     64                     65                     66
                      A                      A                      A
 Frequencies --   3015.2797              3020.8539              3022.2704
 Red. masses --      1.0498                 1.0498                 1.0511
 Frc consts  --      5.6238                 5.6444                 5.6568
 IR Inten    --      4.0804                 8.3507                 0.8242

                     67                     68                     69
                      A                      A                      A
 Frequencies --   3056.0238              3075.4907              3117.2813
 Red. masses --      1.0367                 1.0610                 1.0865
 Frc consts  --      5.7044                 5.9128                 6.2207
 IR Inten    --     10.0914                 1.6829                 1.6549

                     70                     71                     72
                      A                      A                      A
 Frequencies --   3117.7999              3119.0568              3119.6263
 Red. masses --      1.0858                 1.0860                 1.0860
 Frc consts  --      6.2187                 6.2247                 6.2270
 IR Inten    --      2.8925                 6.8242                 7.5011

                     73                     74                     75
                      A                      A                      A
 Frequencies --   3122.0891              3142.3207              3161.4610
 Red. masses --      1.0866                 1.1064                 1.1064
 Frc consts  --      6.2403                 6.4366                 6.5156
 IR Inten    --      1.9126                 1.0546                 5.2208

                     76                     77                     78
                      A                      A                      A
 Frequencies --   3165.5425              3177.8047              3179.9242
 Red. masses --      1.1063                 1.1082                 1.1079
 Frc consts  --      6.5317                 6.5934                 6.6008
 IR Inten    --      5.1157                 2.1276                 0.6171

                     79                     80                     81
                      A                      A                      A
 Frequencies --   3181.5673              3182.2604              3183.1966
 Red. masses --      1.1079                 1.1077                 1.1078
 Frc consts  --      6.6077                 6.6089                 6.6134
 IR Inten    --      1.7098                 1.5303                 0.8509

 Optimization completed.
    -- Stationary point found.
 Normal termination of Gaussian 16 at Mon Jul 10 19:59:36 2023.
