 Gaussian 16, Revision B.01,
 Gaussian 16:  ES64L-G16RevB.01 20-Dec-2017

 ----------------------------------------------------------------------
 #T wB97XD/def2svpp opt=tight freq int(grid=ultrafine) scf=(verytight,q
 c)
 ----------------------------------------------------------------------
 -------
 comment
 -------
 Symbolic Z-matrix:
 Charge =  1 Multiplicity = 2

 SCF Done:  E(UwB97XD) =  -461.849091577     a.u. after   11 cycles
 SCF Done:  E(UwB97XD) =  -461.859836985     a.u. after   14 cycles
 SCF Done:  E(UwB97XD) =  -461.863062914     a.u. after   18 cycles
 SCF Done:  E(UwB97XD) =  -461.865531991     a.u. after   11 cycles
 SCF Done:  E(UwB97XD) =  -461.867228235     a.u. after   11 cycles
 SCF Done:  E(UwB97XD) =  -461.868440771     a.u. after   11 cycles
 SCF Done:  E(UwB97XD) =  -461.869463965     a.u. after    9 cycles
 SCF Done:  E(UwB97XD) =  -461.870000180     a.u. after    9 cycles
 SCF Done:  E(UwB97XD) =  -461.870497680     a.u. after    9 cycles
 SCF Done:  E(UwB97XD) =  -461.870953904     a.u. after   11 cycles
 SCF Done:  E(UwB97XD) =  -461.874793815     a.u. after    5 cycles
 SCF Done:  E(UwB97XD) =  -461.874793385     a.u. after    4 cycles
 SCF Done:  E(UwB97XD) =  -461.874794299     a.u. after    3 cycles
 SCF Done:  E(UwB97XD) =  -461.874794309     a.u. after    2 cycles
 SCF Done:  E(UwB97XD) =  -461.874794314     a.u. after    2 cycles
 SCF Done:  E(UwB97XD) =  -461.874794315     a.u. after    2 cycles
 SCF Done:  E(UwB97XD) =  -461.874794315     a.u. after    2 cycles
 SCF Done:  E(UwB97XD) =  -461.874794315     a.u. after    2 cycles
 SCF Done:  E(UwB97XD) =  -461.874794315     a.u. after    2 cycles
 Optimization completed.
    -- Stationary point found.
 Normal termination of Gaussian 16 at Mon Jul 10 20:23:21 2023.

 ---------------------------------------------------------------------
 #T Geom=AllCheck Guess=TCheck SCRF=Check GenChk UwB97XD/def2SVPP Freq
 ---------------------------------------------------------------------
 Structure from the checkpoint file:  "23.chk"
 -------
 comment
 -------
 Charge =  1 Multiplicity = 2

                         Standard orientation:
 ---------------------------------------------------------------------
 Center     Atomic      Atomic             Coordinates (Angstroms)
 Number     Number       Type             X           Y           Z
 ---------------------------------------------------------------------
      1          6           0       -2.197044   -1.571590   -0.117931
      2          6           0       -0.855489   -1.132405   -0.725899
      3          6           0       -0.250938    0.084745   -0.047921
      4          6           0        0.400051   -0.169474    1.322713
      5          8           0        1.509198   -1.037404    1.254876
      6          6           0        1.118438    0.585376   -1.054104
      7          8           0        1.957312   -0.425725   -1.150061
      8          6           0       -1.125151    1.321780   -0.053620
      9          8           0       -0.387330    2.414689    0.391619
     10          1           0       -2.519371   -2.505980   -0.603748
     11          1           0       -2.990666   -0.825022   -0.281549
     12          1           0       -2.120284   -1.768417    0.964872
     13          1           0       -1.006157   -0.919634   -1.798601
     14          1           0       -0.132876   -1.963207   -0.675563
     15          1           0       -0.385143   -0.578043    1.986497
     16          1           0        0.742502    0.781809    1.755460
     17          1           0        1.291777   -1.947355    1.503899
     18          1           0        1.418872    1.438552   -0.409489
     19          1           0        0.700366    0.860320   -2.032313
     20          1           0        2.267469   -0.698748   -0.236006
     21          1           0       -1.973861    1.095808    0.631324
     22          1           0       -1.559954    1.475470   -1.061501
     23          1           0       -0.905322    3.231379    0.345825
 ---------------------------------------------------------------------

 SCF Done:  E(UwB97XD) =  -461.874794315     a.u. after    1 cycles

 The electronic state is 2-A.
 Alpha  occ. eigenvalues --  -19.51340 -19.45931 -19.43279 -10.56865 -10.54179
 Alpha  occ. eigenvalues --  -10.52907 -10.52709 -10.46912 -10.44069  -1.38632
 Alpha  occ. eigenvalues --   -1.31464  -1.30002  -1.10959  -1.00538  -0.97229
 Alpha  occ. eigenvalues --   -0.95808  -0.90097  -0.86269  -0.82446  -0.79794
 Alpha  occ. eigenvalues --   -0.78458  -0.76847  -0.74401  -0.73290  -0.72241
 Alpha  occ. eigenvalues --   -0.69363  -0.67742  -0.66680  -0.65211  -0.63694
 Alpha  occ. eigenvalues --   -0.62133  -0.60506  -0.59692  -0.58353  -0.55626
 Alpha  occ. eigenvalues --   -0.55122  -0.52612
 Alpha virt. eigenvalues --   -0.04802  -0.03228  -0.02208   0.00110   0.01301
 Alpha virt. eigenvalues --    0.02860   0.03651   0.04916   0.05834   0.06124
 Alpha virt. eigenvalues --    0.07192   0.08179   0.09442   0.10182   0.10714

  Beta  occ. eigenvalues --  -19.50416 -19.45871 -19.43208 -10.56652 -10.53752
  Beta  occ. eigenvalues --  -10.52907 -10.52709 -10.46916 -10.44019  -1.36639
  Beta  occ. eigenvalues --   -1.31217  -1.29827  -1.09849  -1.00073  -0.96094
  Beta  occ. eigenvalues --   -0.95431  -0.89540  -0.85228  -0.82117  -0.79566
  Beta  occ. eigenvalues --   -0.77285  -0.75734  -0.73821  -0.71761  -0.70931
  Beta  occ. eigenvalues --   -0.68137  -0.67396  -0.65915  -0.64325  -0.62180
  Beta  occ. eigenvalues --   -0.60929  -0.59555  -0.59440  -0.58158  -0.54970
  Beta  occ. eigenvalues --   -0.53316
  Beta virt. eigenvalues --   -0.29927  -0.04556  -0.02510  -0.01212   0.00454
  Beta virt. eigenvalues --    0.02272   0.02979   0.03818   0.05103   0.06045
  Beta virt. eigenvalues --    0.06412   0.07439   0.08318   0.09720   0.10419

 Mulliken charges and spin densities:
               1          2
     1  C   -0.342733   0.028942
     2  C   -0.174678  -0.004409
     3  C   -0.419807   0.312321
     4  C    0.050193  -0.001756
     5  O   -0.505663   0.021524
     6  C    0.016903   0.139411
     7  O   -0.257503   0.362027
     8  C    0.055912  -0.007892
     9  O   -0.466666   0.026460
    10  H    0.181536   0.002021
    11  H    0.158014  -0.001556
    12  H    0.142809  -0.001253
    13  H    0.157713   0.007122
    14  H    0.140119  -0.000299
    15  H    0.177020   0.025770
    16  H    0.186267  -0.000966
    17  H    0.376237  -0.000924
    18  H    0.234159   0.047456
    19  H    0.194420   0.000122
    20  H    0.397989  -0.009186
    21  H    0.178278   0.047981
    22  H    0.153758   0.008003
    23  H    0.365722  -0.000920
 Sum of Mulliken charges =   1.00000   1.00000

 Dipole moment (field-independent basis, Debye):
    X=             -1.3197    Y=              0.4237    Z=              0.2179  Tot=              1.4030
  Exact polarizability:  90.363  -4.883  81.890  -6.612  -0.159  69.939
 Approx polarizability:  91.646  -6.444  83.450  -7.223   0.412  76.968
                          Isotropic Fermi Contact Couplings
        Atom                 a.u.       MegaHertz       Gauss      10(-4) cm-1
     1  C(13)              0.01491      16.76388       5.98177       5.59183
     2  C(13)             -0.01122     -12.61235      -4.50040      -4.20703
     3  C(13)              0.04114      46.24901      16.50280      15.42701
     4  C(13)             -0.01021     -11.48165      -4.09694      -3.82987
     5  O(17)              0.00665      -4.03024      -1.43809      -1.34434
     6  C(13)             -0.01084     -12.18866      -4.34922      -4.06570

                      1                      2                      3
                      A                      A                      A
 Frequencies --     68.7133               133.3791               146.3140
 Red. masses --      2.2435                 2.0092                 4.0846
 Frc consts  --      0.0062                 0.0211                 0.0515
 IR Inten    --     10.7900                23.2182                 1.6181

                      4                      5                      6
                      A                      A                      A
 Frequencies --    160.1541               203.0569               218.8264
 Red. masses --      3.0142                 2.2364                 2.4665
 Frc consts  --      0.0456                 0.0543                 0.0696
 IR Inten    --      2.4242                 6.8275                 7.9429

                      7                      8                      9
                      A                      A                      A
 Frequencies --    255.0044               266.8421               290.0283
 Red. masses --      2.8376                 1.3609                 1.7932
 Frc consts  --      0.1087                 0.0571                 0.0889
 IR Inten    --      5.6467                 6.9700               132.0721

                     10                     11                     12
                      A                      A                      A
 Frequencies --    298.7793               323.3370               355.2410
 Red. masses --      2.9048                 2.0640                 1.9394
 Frc consts  --      0.1528                 0.1271                 0.1442
 IR Inten    --      2.2714                48.3707                 7.1825

                     13                     14                     15
                      A                      A                      A
 Frequencies --    372.9194               426.3513               453.7174
 Red. masses --      1.9478                 3.4054                 3.4679
 Frc consts  --      0.1596                 0.3647                 0.4206
 IR Inten    --     37.1432                 6.7609                10.5383

                     16                     17                     18
                      A                      A                      A
 Frequencies --    533.0082               569.7196               605.0413
 Red. masses --      2.3357                 1.5291                 2.9580
 Frc consts  --      0.3910                 0.2924                 0.6380
 IR Inten    --     11.2232               101.9710                11.4920

                     19                     20                     21
                      A                      A                      A
 Frequencies --    789.8004               799.0590               893.4768
 Red. masses --      2.8149                 1.2461                 1.4933
 Frc consts  --      1.0345                 0.4688                 0.7024
 IR Inten    --     30.7034                 1.0012                12.2306

                     22                     23                     24
                      A                      A                      A
 Frequencies --    977.6553               985.9017              1006.2976
 Red. masses --      1.2218                 1.5550                 1.9547
 Frc consts  --      0.6881                 0.8905                 1.1662
 IR Inten    --     31.4456                86.4765                23.1545

                     25                     26                     27
                      A                      A                      A
 Frequencies --   1029.9256              1070.3883              1124.2453
 Red. masses --      1.6837                 1.9442                 4.6459
 Frc consts  --      1.0523                 1.3124                 3.4597
 IR Inten    --      8.4407                84.7095                40.9448

                     28                     29                     30
                      A                      A                      A
 Frequencies --   1156.4127              1162.3014              1180.3455
 Red. masses --      3.0420                 1.3916                 1.5553
 Frc consts  --      2.3968                 1.1077                 1.2767
 IR Inten    --     74.8705                13.5626                46.6537

                     31                     32                     33
                      A                      A                      A
 Frequencies --   1192.5611              1217.5447              1238.5517
 Red. masses --      1.1993                 1.4817                 1.4783
 Frc consts  --      1.0049                 1.2941                 1.3361
 IR Inten    --     30.1914                13.9742                 3.2738

                     34                     35                     36
                      A                      A                      A
 Frequencies --   1266.9240              1277.5197              1330.2897
 Red. masses --      1.2237                 1.3892                 2.4821
 Frc consts  --      1.1572                 1.3358                 2.5879
 IR Inten    --      9.0255                40.4819                88.9173

                     37                     38                     39
                      A                      A                      A
 Frequencies --   1343.5544              1368.4043              1379.3381
 Red. masses --      1.3063                 1.4023                 1.3668
 Frc consts  --      1.3893                 1.5471                 1.5321
 IR Inten    --     14.2152                 2.5973                38.2220

                     40                     41                     42
                      A                      A                      A
 Frequencies --   1413.3342              1431.3178              1445.0742
 Red. masses --      1.1950                 1.2291                 1.4592
 Frc consts  --      1.4064                 1.4835                 1.7954
 IR Inten    --      0.7215                 3.2064                11.4893

                     43                     44                     45
                      A                      A                      A
 Frequencies --   1478.2424              1482.6058              1489.5418
 Red. masses --      1.2096                 1.0615                 1.0903
 Frc consts  --      1.5573                 1.3748                 1.4253
 IR Inten    --     76.3902                10.8704                44.5814

                     46                     47                     48
                      A                      A                      A
 Frequencies --   1495.0693              1499.1477              1504.0421
 Red. masses --      1.1076                 1.1259                 1.0698
 Frc consts  --      1.4587                 1.4909                 1.4258
 IR Inten    --      2.4828                 7.1780                25.8777

                     49                     50                     51
                      A                      A                      A
 Frequencies --   1530.4489              2967.4791              3000.0999
 Red. masses --      1.2623                 1.0638                 1.0611
 Frc consts  --      1.7420                 5.5196                 5.6270
 IR Inten    --      4.1786                37.0938                36.3981

                     52                     53                     54
                      A                      A                      A
 Frequencies --   3046.5354              3050.4023              3053.6613
 Red. masses --      1.0960                 1.0475                 1.0602
 Frc consts  --      5.9933                 5.7428                 5.8249
 IR Inten    --     12.0993                 4.6451                 1.4132

                     55                     56                     57
                      A                      A                      A
 Frequencies --   3066.0445              3123.7168              3150.3667
 Red. masses --      1.0633                 1.1047                 1.1053
 Frc consts  --      5.8891                 6.3509                 6.4632
 IR Inten    --      3.3276                 1.1059                 2.6517

                     58                     59                     60
                      A                      A                      A
 Frequencies --   3159.5132              3160.3798              3169.8485
 Red. masses --      1.1024                 1.1053                 1.0804
 Frc consts  --      6.4838                 6.5046                 6.3962
 IR Inten    --      0.6605                 1.3130               401.7735

                     61                     62                     63
                      A                      A                      A
 Frequencies --   3202.4653              3766.7704              3772.9075
 Red. masses --      1.0942                 1.0674                 1.0677
 Frc consts  --      6.6116                 8.9230                 8.9546
 IR Inten    --    143.9972               234.6109               123.8341

 Optimization completed.
    -- Stationary point found.
 Normal termination of Gaussian 16 at Mon Jul 10 20:27:35 2023.
