 Gaussian 16, Revision B.01,
 Gaussian 16:  ES64L-G16RevB.01 20-Dec-2017

 ----------------------------------------------------------------------
 #T wB97XD/def2svpp opt=tight freq int(grid=ultrafine) scf=(verytight,q
 c) Volume=tight
 ----------------------------------------------------------------------
 -----
 Dimer
 -----
 Symbolic Z-matrix:
 Charge =  0 Multiplicity = 1

 SCF Done:  E(RwB97XD) =  -991.505292381     a.u. after    8 cycles
 SCF Done:  E(RwB97XD) =  -991.509700027     a.u. after    8 cycles
 SCF Done:  E(RwB97XD) =  -991.510659780     a.u. after    7 cycles
 SCF Done:  E(RwB97XD) =  -991.511680289     a.u. after    9 cycles
 SCF Done:  E(RwB97XD) =  -991.512313707     a.u. after   10 cycles
 SCF Done:  E(RwB97XD) =  -991.513273483     a.u. after   15 cycles
 SCF Done:  E(RwB97XD) =  -991.513353709     a.u. after   16 cycles
 SCF Done:  E(RwB97XD) =  -991.513340232     a.u. after   15 cycles
 SCF Done:  E(RwB97XD) =  -991.513906329     a.u. after   13 cycles
 SCF Done:  E(RwB97XD) =  -991.513738410     a.u. after    9 cycles
 SCF Done:  E(RwB97XD) =  -991.514010210     a.u. after    5 cycles
 SCF Done:  E(RwB97XD) =  -991.514018568     a.u. after    5 cycles
 SCF Done:  E(RwB97XD) =  -991.514019191     a.u. after    3 cycles
 SCF Done:  E(RwB97XD) =  -991.514019853     a.u. after    3 cycles
 SCF Done:  E(RwB97XD) =  -991.514020623     a.u. after    3 cycles
 SCF Done:  E(RwB97XD) =  -991.514021181     a.u. after    2 cycles
 SCF Done:  E(RwB97XD) =  -991.514021462     a.u. after    3 cycles
 SCF Done:  E(RwB97XD) =  -991.514021469     a.u. after    2 cycles
 SCF Done:  E(RwB97XD) =  -991.514021469     a.u. after    2 cycles
 Optimization completed.
    -- Stationary point found.
 Normal termination of Gaussian 16 at Mon Apr  1 17:13:32 2024.

 ---------------------------------------------------------------------
 #T Geom=AllCheck Guess=TCheck SCRF=Check GenChk RwB97XD/def2SVPP Freq
 ---------------------------------------------------------------------
 Structure from the checkpoint file:  "dimer.chk"
 -----
 Dimer
 -----
 Charge =  0 Multiplicity = 1

                         Standard orientation:
 ---------------------------------------------------------------------
 Center     Atomic      Atomic             Coordinates (Angstroms)
 Number     Number       Type             X           Y           Z
 ---------------------------------------------------------------------
      1          6           0       -3.553142    0.149419   -1.261297
      2          6           0       -2.698359    0.000024   -0.000024
      3          6           0       -3.553174   -0.149320    1.261234
      4          6           0       -1.726842   -1.185917   -0.118039
      5          8           0       -1.113572   -1.209649   -1.290051
      6          8           0       -1.478333   -1.957953    0.780041
      7          6           0       -1.726775    1.185911    0.118011
      8          8           0       -1.113485    1.209571    1.290015
      9          8           0       -1.478243    1.957962   -0.780048
     10          1           0       -4.186104   -0.743557   -1.395935
     11          1           0       -2.928129    0.282463   -2.155154
     12          1           0       -4.209720    1.029443   -1.163879
     13          1           0       -4.186082    0.743696    1.395862
     14          1           0       -2.928186   -0.282405    2.155102
     15          1           0       -4.209807   -1.029301    1.163802
     16          1           0       -0.343290   -1.826112   -1.258508
     17          1           0       -0.343187    1.826015    1.258500
     18          6           0        3.553150    0.148840    1.261354
     19          6           0        2.698360   -0.000025    0.000023
     20          6           0        3.553168   -0.148946   -1.261289
     21          6           0        1.726768   -1.185952    0.117589
     22          8           0        1.113469   -1.210065    1.289579
     23          8           0        1.478245   -1.957659   -0.780769
     24          6           0        1.726850    1.185965   -0.117563
     25          8           0        1.113588    1.210132   -1.289571
     26          8           0        1.478328    1.957665    0.780803
     27          1           0        4.186053   -0.744228    1.395656
     28          1           0        2.928144    0.281588    2.155260
     29          1           0        4.209786    1.028857    1.164268
     30          1           0        4.186137    0.744077   -1.395575
     31          1           0        2.928174   -0.281649   -2.155210
     32          1           0        4.209739   -1.029010   -1.164189
     33          1           0        0.343169   -1.826495    1.257817
     34          1           0        0.343310    1.826588   -1.257808
 ---------------------------------------------------------------------

 SCF Done:  E(RwB97XD) =  -991.514021469     a.u. after    1 cycles

 The electronic state is 1-A.
 Alpha  occ. eigenvalues --  -19.31671 -19.31671 -19.31665 -19.31662 -19.27175
 Alpha  occ. eigenvalues --  -19.27174 -19.27173 -19.27171 -10.45712 -10.45708
 Alpha  occ. eigenvalues --  -10.45708 -10.45707 -10.35032 -10.35031 -10.29964
 Alpha  occ. eigenvalues --  -10.29963 -10.29960 -10.29959  -1.23600  -1.22598
 Alpha  occ. eigenvalues --   -1.22470  -1.21561  -1.13638  -1.13237  -1.12595
 Alpha  occ. eigenvalues --   -1.12265  -0.93888  -0.93560  -0.79668  -0.79655
 Alpha  occ. eigenvalues --   -0.78808  -0.78327  -0.76147  -0.74508  -0.68226
 Alpha  occ. eigenvalues --   -0.68158  -0.64085  -0.62944  -0.60454  -0.60445
 Alpha  occ. eigenvalues --   -0.60127  -0.59354  -0.59128  -0.58269  -0.56530
 Alpha  occ. eigenvalues --   -0.54748  -0.54646  -0.53875  -0.52765  -0.51184
 Alpha  occ. eigenvalues --   -0.51101  -0.50338  -0.49878  -0.49695  -0.48707
 Alpha  occ. eigenvalues --   -0.48651  -0.46578  -0.46312  -0.46215  -0.45957
 Alpha  occ. eigenvalues --   -0.44585  -0.44283  -0.44137  -0.42757  -0.42143
 Alpha  occ. eigenvalues --   -0.41794  -0.39491  -0.39072  -0.38216  -0.36957
 Alpha virt. eigenvalues --    0.02280   0.03767   0.09276   0.09351   0.13108
 Alpha virt. eigenvalues --    0.14602   0.16808   0.17312   0.17500   0.18149
 Alpha virt. eigenvalues --    0.19723   0.20204   0.20272   0.20800   0.21366

 Mulliken charges:
               1
     1  C   -0.244023
     2  C   -0.352290
     3  C   -0.244025
     4  C    0.260455
     5  O   -0.360680
     6  O   -0.264099
     7  C    0.260453
     8  O   -0.360683
     9  O   -0.264095
    10  H    0.126443
    11  H    0.157453
    12  H    0.132226
    13  H    0.126444
    14  H    0.157454
    15  H    0.132226
    16  H    0.368369
    17  H    0.368370
    18  C   -0.244025
    19  C   -0.352289
    20  C   -0.244024
    21  C    0.260454
    22  O   -0.360682
    23  O   -0.264095
    24  C    0.260454
    25  O   -0.360680
    26  O   -0.264098
    27  H    0.126444
    28  H    0.157454
    29  H    0.132226
    30  H    0.126443
    31  H    0.157454
    32  H    0.132226
    33  H    0.368370
    34  H    0.368369
 Sum of Mulliken charges =   0.00000

 Dipole moment (field-independent basis, Debye):
    X=              0.0000    Y=             -0.0000    Z=             -0.0000  Tot=              0.0000
  Exact polarizability: 134.301  -0.000 108.966   0.000  -0.001 115.691
 Approx polarizability: 125.685   0.000 130.032  -0.000  -0.004 148.964
   1 Symmetry operations used in ECPInt.
 ECPInt:  NShTT=    9870 NPrTT=   39622 LenC2=    9480 LenP2D=   26343.
 LDataN:  DoStor=T MaxTD1= 6 Len=  172
 Calling FoFJK, ICntrl=    100127 FMM=F ISym2X=0 I1Cent= 0 IOpClX= 0 NMat=1 NMatS=1 NMatT=0.
 Full mass-weighted force constant matrix:
 Low frequencies ---   -8.0710   -6.0596   -4.8202   -0.0004    0.0002    0.0003
 Low frequencies ---   49.5914   61.2183   63.0076
 Diagonal vibrational polarizability:

                      1                      2                      3
                      A                      A                      A
 Frequencies --     49.5870                61.1928                63.0075
 Red. masses --      5.5881                 5.4435                11.3312
 Frc consts  --      0.0081                 0.0120                 0.0265
 IR Inten    --      0.3148                 0.0890                 0.0001

                      4                      5                      6
                      A                      A                      A
 Frequencies --     87.4233                95.8263                97.1938
 Red. masses --     12.3474                 5.4957                 6.6858
 Frc consts  --      0.0556                 0.0297                 0.0372
 IR Inten    --      0.3969                 0.0302                 0.0000

                      7                      8                      9
                      A                      A                      A
 Frequencies --    134.1534               134.1710               136.9430
 Red. masses --      4.5974                 7.8091                 5.7358
 Frc consts  --      0.0487                 0.0828                 0.0634
 IR Inten    --      0.2706                13.3667                 0.0000

                     10                     11                     12
                      A                      A                      A
 Frequencies --    159.3832               180.4100               206.5216
 Red. masses --      9.0964                 7.2706                 3.4607
 Frc consts  --      0.1361                 0.1394                 0.0870
 IR Inten    --      0.7888                 0.0000                11.8033

                     13                     14                     15
                      A                      A                      A
 Frequencies --    215.5687               218.3175               242.6126
 Red. masses --      1.1176                 1.3507                 1.1649
 Frc consts  --      0.0306                 0.0379                 0.0404
 IR Inten    --      0.0008                10.7334                 0.1461

                     16                     17                     18
                      A                      A                      A
 Frequencies --    247.7091               267.6087               268.4990
 Red. masses --      1.1730                 2.5768                 2.5799
 Frc consts  --      0.0424                 0.1087                 0.1096
 IR Inten    --      0.4926                 0.0048                13.2837

                     19                     20                     21
                      A                      A                      A
 Frequencies --    295.0141               301.5732               334.4532
 Red. masses --      4.7543                 4.7649                 2.3401
 Frc consts  --      0.2438                 0.2553                 0.1542
 IR Inten    --      2.3229                 0.1008                 0.9247

                     22                     23                     24
                      A                      A                      A
 Frequencies --    343.6830               365.4581               370.9534
 Red. masses --      2.5618                 2.7240                 2.6852
 Frc consts  --      0.1783                 0.2144                 0.2177
 IR Inten    --      5.9155                 1.7908                 0.0000

                     25                     26                     27
                      A                      A                      A
 Frequencies --    445.9362               455.6723               538.5693
 Red. masses --      8.6301                 8.9623                 4.9549
 Frc consts  --      1.0111                 1.0964                 0.8468
 IR Inten    --      0.0000                18.1625                 0.1761

                     28                     29                     30
                      A                      A                      A
 Frequencies --    541.1447               541.5559               543.0151
 Red. masses --      4.9368                 4.0795                 4.0606
 Frc consts  --      0.8518                 0.7049                 0.7054
 IR Inten    --     25.1759                 0.0007                19.2864

                     31                     32                     33
                      A                      A                      A
 Frequencies --    614.6244               618.1361               723.3944
 Red. masses --      3.5237                 3.7047                 3.0469
 Frc consts  --      0.7843                 0.8340                 0.9394
 IR Inten    --      1.2267                 3.4345                82.1326

                     34                     35                     36
                      A                      A                      A
 Frequencies --    743.1907               754.9917               763.7051
 Red. masses --      5.2298                 1.9590                 1.8052
 Frc consts  --      1.7019                 0.6579                 0.6203
 IR Inten    --      1.0965               436.0736                 0.0007

                     37                     38                     39
                      A                      A                      A
 Frequencies --    779.0680               780.8638               804.4089
 Red. masses --      2.9316                 1.2502                 2.1767
 Frc consts  --      1.0484                 0.4491                 0.8299
 IR Inten    --      0.0046               150.1206               122.9533

                     40                     41                     42
                      A                      A                      A
 Frequencies --    816.7268               859.0613               880.4451
 Red. masses --      1.4511                 2.9620                 2.3102
 Frc consts  --      0.5703                 1.2879                 1.0551
 IR Inten    --    236.7763               183.4024               132.0054

                     43                     44                     45
                      A                      A                      A
 Frequencies --    884.0718               887.4627               979.8992
 Red. masses --      2.5572                 2.1320                 1.3446
 Frc consts  --      1.1776                 0.9893                 0.7607
 IR Inten    --      0.0001                54.2709                 0.2541

                     46                     47                     48
                      A                      A                      A
 Frequencies --    979.9364               995.7839               996.2693
 Red. masses --      1.3455                 2.1041                 2.0537
 Frc consts  --      0.7612                 1.2292                 1.2010
 IR Inten    --      5.0158                 0.0007                 4.1190

                     49                     50                     51
                      A                      A                      A
 Frequencies --   1042.6178              1042.7161              1208.0953
 Red. masses --      1.2916                 1.2961                 3.0428
 Frc consts  --      0.8272                 0.8303                 2.6165
 IR Inten    --      6.8833                 0.0081                28.7858

                     52                     53                     54
                      A                      A                      A
 Frequencies --   1210.4778              1237.4055              1237.4822
 Red. masses --      2.8328                 2.8791                 2.7955
 Frc consts  --      2.4456                 2.5973                 2.5223
 IR Inten    --     77.4790               152.8132                18.0646

                     55                     56                     57
                      A                      A                      A
 Frequencies --   1238.1547              1241.0302              1288.8949
 Red. masses --      2.8883                 2.8031                 1.6144
 Frc consts  --      2.6088                 2.5437                 1.5802
 IR Inten    --      0.0005               135.2959                65.5145

                     58                     59                     60
                      A                      A                      A
 Frequencies --   1296.2491              1296.4134              1309.4597
 Red. masses --      2.4298                 3.0371                 1.8766
 Frc consts  --      2.4054                 3.0074                 1.8958
 IR Inten    --    195.9036                70.7488                 0.0000

                     61                     62                     63
                      A                      A                      A
 Frequencies --   1393.4405              1408.8713              1417.3495
 Red. masses --      2.0247                 1.3326                 1.4325
 Frc consts  --      2.3163                 1.5585                 1.6955
 IR Inten    --     29.8397                 0.1736                 4.0790

                     64                     65                     66
                      A                      A                      A
 Frequencies --   1420.0998              1426.0136              1432.5093
 Red. masses --      1.7525                 1.4080                 1.7977
 Frc consts  --      2.0823                 1.6869                 2.1736
 IR Inten    --     45.8639                 0.0000                20.6067

                     67                     68                     69
                      A                      A                      A
 Frequencies --   1447.4022              1452.7792              1480.5225
 Red. masses --      1.7659                 1.8679                 1.0531
 Frc consts  --      2.1797                 2.3228                 1.3600
 IR Inten    --    150.4754                 0.0001                12.0910

                     70                     71                     72
                      A                      A                      A
 Frequencies --   1480.5821              1482.0058              1482.9019
 Red. masses --      1.0535                 1.0846                 1.1097
 Frc consts  --      1.3606                 1.4035                 1.4378
 IR Inten    --      0.0740                12.1539                 0.0006

                     73                     74                     75
                      A                      A                      A
 Frequencies --   1495.3481              1495.5361              1505.0065
 Red. masses --      1.0784                 1.0805                 1.0754
 Frc consts  --      1.4208                 1.4239                 1.4352
 IR Inten    --      0.0111                41.0716                 6.5530

                     76                     77                     78
                      A                      A                      A
 Frequencies --   1505.9347              1832.6305              1845.2520
 Red. masses --      1.0886                 9.8335                 9.6097
 Frc consts  --      1.4546                19.4585                19.2785
 IR Inten    --     59.6697               412.6945                 0.0000

                     79                     80                     81
                      A                      A                      A
 Frequencies --   1869.7972              1870.9863              3054.7236
 Red. masses --     10.8319                10.9777                 1.0388
 Frc consts  --     22.3123                22.6414                 5.7112
 IR Inten    --     28.7429               713.8265                 0.4929

                     82                     83                     84
                      A                      A                      A
 Frequencies --   3054.7306              3057.7227              3057.8824
 Red. masses --      1.0388                 1.0392                 1.0392
 Frc consts  --      5.7112                 5.7246                 5.7251
 IR Inten    --     11.6129                53.2131                 0.0034

                     85                     86                     87
                      A                      A                      A
 Frequencies --   3143.1847              3143.1999              3146.2854
 Red. masses --      1.1061                 1.1061                 1.1053
 Frc consts  --      6.4386                 6.4387                 6.4467
 IR Inten    --      0.0000                 0.0041                 0.5475

                     88                     89                     90
                      A                      A                      A
 Frequencies --   3146.3981              3185.8336              3185.8942
 Red. masses --      1.1053                 1.1040                 1.1039
 Frc consts  --      6.4469                 6.6016                 6.6018
 IR Inten    --     37.9409                 8.5378                 0.0104

                     91                     92                     93
                      A                      A                      A
 Frequencies --   3186.0911              3186.1136              3443.1293
 Red. masses --      1.1035                 1.1035                 1.0673
 Frc consts  --      6.5999                 6.6001                 7.4548
 IR Inten    --      0.0211                 2.0034               143.1032

                     94                     95                     96
                      A                      A                      A
 Frequencies --   3443.8738              3465.4519              3484.8286
 Red. masses --      1.0670                 1.0652                 1.0661
 Frc consts  --      7.4558                 7.5367                 7.6283
 IR Inten    --      0.0006                 3.8829              1638.9880

                           ! Non-Optimized Parameters !
 Normal termination of Gaussian 16 at Mon Apr  1 17:28:47 2024.
