 Gaussian 16, Revision B.01,
 Gaussian 16:  ES64L-G16RevB.01 20-Dec-2017

 --------------------------------------------------------------
 #T wB97XD//def2svpp Volume=tight Geom=AllCheckpoint Guess=Read
 --------------------------------------------------------------
 Structure from the checkpoint file:  "43.chk"
 -------
 Monomer
 -------
 Charge =  0 Multiplicity = 1

                         Standard orientation:
 ---------------------------------------------------------------------
 Center     Atomic      Atomic             Coordinates (Angstroms)
 Number     Number       Type             X           Y           Z
 ---------------------------------------------------------------------
      1          6           0        0.000003    0.000001   -0.000000
      2          1           0       -0.333110    1.044319    0.112371
      3          1           0       -0.556593   -0.476531   -0.822994
      4          1           0       -0.188563   -0.548511    0.936893
      5          1           0        1.078250   -0.019281   -0.226271
 ---------------------------------------------------------------------

 SCF Done:  E(RwB97XD) =  -40.4633537064     A.U. after    1 cycles

 The electronic state is 1-A.
 Alpha  occ. eigenvalues --  -10.27467  -0.77918  -0.47412  -0.47412  -0.47412
 Alpha virt. eigenvalues --    0.15714   0.22688   0.22688   0.22688   0.51096
 Alpha virt. eigenvalues --    0.51096   0.51097   0.76612   0.80744   0.80744
 Alpha virt. eigenvalues --    0.80744   0.86977   1.73418   1.73419   2.21922

 Mulliken charges:
               1
     1  C   -0.532220
     2  H    0.133055
     3  H    0.133054
     4  H    0.133054
     5  H    0.133056
 Sum of Mulliken charges =  -0.00000

 Dipole moment (field-independent basis, Debye):
    X=             -0.0000    Y=              0.0000    Z=              0.0000  Tot=              0.0000
 Evaluate density.
 Using the total density.
 Monte-Carlo method of calculating molar volume:
 based on  0.001 e/bohr**3 density envelope.
 Number of points per bohr**3 =  100 CutOff= 1.00D-04
 Using the SCF density.
 There are      1302 points.  Will hold      1302 in memory.
 LenV=  1048540317 MDV=  1048576000.
 Box volume = 2209.956 fraction occupied=0.121
 Integrated density= 7.4158455900681020D+00 error=-2.5841544099318980D+00

 Normal termination of Gaussian 16 at Fri Sep 23 14:16:14 2022.
