 Gaussian 16, Revision B.01,
 Gaussian 16:  ES64L-G16RevB.01 20-Dec-2017

 ----------------------------------------------------------------------
 #T wB97XD/def2svpp opt=tight freq int(grid=ultrafine) scf=(verytight,q
 c) Volume=tight
 ----------------------------------------------------------------------
 -------
 Monomer
 -------
 Symbolic Z-matrix:
 Charge =  0 Multiplicity = 1

 SCF Done:  E(RwB97XD) =  -1533.20626227     a.u. after    8 cycles
 SCF Done:  E(RwB97XD) =  -1533.20626227     a.u. after    2 cycles
 SCF Done:  E(RwB97XD) =  -1533.20626227     a.u. after    2 cycles
 SCF Done:  E(RwB97XD) =  -1533.20626227     a.u. after    2 cycles
 Optimization completed.
    -- Stationary point found.
 Normal termination of Gaussian 16 at Mon Feb  6 10:23:13 2023.

 ---------------------------------------------------------------------
 #T Geom=AllCheck Guess=TCheck SCRF=Check GenChk RwB97XD/def2SVPP Freq
 ---------------------------------------------------------------------
 Structure from the checkpoint file:  "19.chk"
 -------
 Monomer
 -------
 Charge =  0 Multiplicity = 1

                         Standard orientation:
 ---------------------------------------------------------------------
 Center     Atomic      Atomic             Coordinates (Angstroms)
 Number     Number       Type             X           Y           Z
 ---------------------------------------------------------------------
      1          8           0        2.158754    0.130224    0.931993
      2          6           0        0.827801    0.007438    1.287084
      3          6           0       -0.125378    0.012773    0.077633
      4         17           0       -1.798626   -0.148262    0.665542
      5         17           0        0.049415    1.510463   -0.858907
      6         17           0        0.274197   -1.390679   -0.972033
      7          1           0        2.414127   -0.635263    0.395466
      8          1           0        0.567717    0.873730    1.914868
      9          1           0        0.608825   -0.917399    1.857181
 ---------------------------------------------------------------------

 SCF Done:  E(RwB97XD) =  -1533.20626227     a.u. after    1 cycles

 The electronic state is 1-A.
 Alpha  occ. eigenvalues -- -101.70261-101.70066-101.69513 -19.27716 -10.47799
 Alpha  occ. eigenvalues --  -10.37851  -9.61092  -9.60913  -9.60361  -7.36501
 Alpha  occ. eigenvalues --   -7.36341  -7.35802  -7.35485  -7.35450  -7.35278
 Alpha  occ. eigenvalues --   -7.35273  -7.34726  -7.34705  -1.15113  -1.04788
 Alpha  occ. eigenvalues --   -0.94251  -0.93915  -0.83040  -0.70433  -0.63672
 Alpha  occ. eigenvalues --   -0.59270  -0.59088  -0.54573  -0.52544  -0.45555
 Alpha  occ. eigenvalues --   -0.44085  -0.43914  -0.41789  -0.40939  -0.40245
 Alpha  occ. eigenvalues --   -0.39021  -0.38320
 Alpha virt. eigenvalues --    0.05704   0.08609   0.09322   0.14197   0.17292
 Alpha virt. eigenvalues --    0.20314   0.23994   0.28002   0.48167   0.48852
 Alpha virt. eigenvalues --    0.50518   0.53239   0.53885   0.55838   0.61765

 Mulliken charges:
               1
     1  O   -0.459331
     2  C    0.107099
     3  C   -0.108319
     4  Cl  -0.036780
     5  Cl  -0.026048
     6  Cl  -0.064049
     7  H    0.321688
     8  H    0.140061
     9  H    0.125678
 Sum of Mulliken charges =  -0.00000

 Dipole moment (field-independent basis, Debye):
    X=              0.1674    Y=             -1.1314    Z=              0.6783  Tot=              1.3297
  Exact polarizability:  52.591  -0.687  53.227  -4.997   0.345  47.469
 Approx polarizability:  61.410  -0.215  64.526  -7.745   0.912  55.068
   1 Symmetry operations used in ECPInt.
 ECPInt:  NShTT=    1176 NPrTT=    5370 LenC2=    1149 LenP2D=    3931.
 LDataN:  DoStor=T MaxTD1= 6 Len=  172
 Calling FoFJK, ICntrl=    100127 FMM=F ISym2X=0 I1Cent= 0 IOpClX= 0 NMat=1 NMatS=1 NMatT=0.
 Full mass-weighted force constant matrix:
 Low frequencies ---   -1.5675   -0.0032   -0.0011   -0.0010    4.8081   12.5034
 Low frequencies ---  140.6991  189.8218  249.6606
 Diagonal vibrational polarizability:

                      1                      2                      3
                      A                      A                      A
 Frequencies --    140.6945               189.8207               249.6605
 Red. masses --      5.0139                10.9458                 7.0326
 Frc consts  --      0.0585                 0.2324                 0.2583
 IR Inten    --      2.3409                 1.3464                 1.1102

                      4                      5                      6
                      A                      A                      A
 Frequencies --    269.4550               332.3546               339.7545
 Red. masses --     12.9767                 7.3297                 2.7534
 Frc consts  --      0.5551                 0.4770                 0.1873
 IR Inten    --      3.0584                 1.5405                27.5372

                      7                      8                      9
                      A                      A                      A
 Frequencies --    414.8122               445.0679               588.4515
 Red. masses --      1.7248                 4.1216                 5.8325
 Frc consts  --      0.1749                 0.4810                 1.1899
 IR Inten    --     92.3642                47.2310                60.8485

                     10                     11                     12
                      A                      A                      A
 Frequencies --    740.2648               859.6169              1038.7269
 Red. masses --      4.3571                10.4945                 2.0437
 Frc consts  --      1.4068                 4.5690                 1.2992
 IR Inten    --    109.3078               123.8170                45.5317

                     13                     14                     15
                      A                      A                      A
 Frequencies --   1073.8659              1190.8201              1249.8233
 Red. masses --      3.6522                 4.2535                 1.1635
 Frc consts  --      2.4815                 3.5538                 1.0708
 IR Inten    --     21.3758               110.9583                31.5351

                     16                     17                     18
                      A                      A                      A
 Frequencies --   1398.5367              1433.1077              1497.5291
 Red. masses --      1.2358                 1.2626                 1.1060
 Frc consts  --      1.4241                 1.5279                 1.4613
 IR Inten    --      9.6808                52.9149                 4.8473

                     19                     20                     21
                      A                      A                      A
 Frequencies --   3033.6949              3147.9276              3742.1480
 Red. masses --      1.0687                 1.1012                 1.0655
 Frc consts  --      5.7952                 6.4294                 8.7908
 IR Inten    --     23.6078                 4.2452                43.7183

 Optimization completed.
    -- Stationary point found.
 Normal termination of Gaussian 16 at Mon Feb  6 10:23:42 2023.
