 Gaussian 16, Revision B.01,
 Gaussian 16:  ES64L-G16RevB.01 20-Dec-2017

 --------------------------------------------------------------
 #T wB97XD//def2svpp Volume=tight Geom=AllCheckpoint Guess=Read
 --------------------------------------------------------------
 Structure from the checkpoint file:  "22.chk"
 -------
 Monomer
 -------
 Charge =  0 Multiplicity = 1

                         Standard orientation:
 ---------------------------------------------------------------------
 Center     Atomic      Atomic             Coordinates (Angstroms)
 Number     Number       Type             X           Y           Z
 ---------------------------------------------------------------------
      1          7           0       -0.122212    0.074049    1.434121
      2          6           0       -0.174685   -0.194031   -0.002113
      3          6           0        0.863227   -1.267122   -0.373331
      4          8           0        2.158755   -0.963754    0.044024
      5          6           0       -1.559344   -0.667681   -0.447840
      6          8           0       -2.516093    0.234490    0.054373
      7          6           0        0.187594    1.144682   -0.688049
      8          8           0        1.347109    1.669700   -0.090692
      9          1           0        0.186500   -0.733090    1.972475
     10          1           0       -1.034349    0.385314    1.768322
     11          1           0        0.809083   -1.429330   -1.472850
     12          1           0        0.584769   -2.224795    0.106318
     13          1           0        2.305901   -0.013944   -0.123206
     14          1           0       -1.734103   -1.690534   -0.053509
     15          1           0       -1.595780   -0.720212   -1.555742
     16          1           0       -3.400531   -0.069197   -0.183140
     17          1           0       -0.664423    1.846262   -0.596549
     18          1           0        0.393712    0.992979   -1.761547
     19          1           0        1.185781    1.519637    0.866936
 ---------------------------------------------------------------------

 SCF Done:  E(RwB97XD) =  -438.949731783     A.U. after    1 cycles

 The electronic state is 1-A.
 Alpha  occ. eigenvalues --  -19.27150 -19.24425 -19.23150 -14.42910 -10.35308
 Alpha  occ. eigenvalues --  -10.33821 -10.33521 -10.33144  -1.13590  -1.11952
 Alpha  occ. eigenvalues --   -1.09410  -0.98662  -0.85646  -0.76478  -0.76131
 Alpha  occ. eigenvalues --   -0.67267  -0.64066  -0.59684  -0.59341  -0.58055
 Alpha  occ. eigenvalues --   -0.55675  -0.53505  -0.51927  -0.49493  -0.48739
 Alpha  occ. eigenvalues --   -0.47881  -0.45078  -0.41867  -0.40611  -0.37823
 Alpha  occ. eigenvalues --   -0.34848  -0.34718  -0.32849
 Alpha virt. eigenvalues --    0.11299   0.14333   0.15793   0.16823   0.19761
 Alpha virt. eigenvalues --    0.21047   0.21410   0.21836   0.22517   0.23291
 Alpha virt. eigenvalues --    0.25838   0.27249   0.28736   0.30454   0.31532

 Mulliken charges:
               1
     1  N   -0.514860
     2  C   -0.265135
     3  C    0.100447
     4  O   -0.498585
     5  C    0.059445
     6  O   -0.483343
     7  C    0.084463
     8  O   -0.507828
     9  H    0.236710
    10  H    0.246521
    11  H    0.084242
    12  H    0.090355
    13  H    0.320688
    14  H    0.088739
    15  H    0.091676
    16  H    0.327351
    17  H    0.110115
    18  H    0.100582
    19  H    0.328415
 Sum of Mulliken charges =  -0.00000

 Dipole moment (field-independent basis, Debye):
    X=             -4.3344    Y=             -1.6594    Z=             -0.2174  Tot=              4.6463
 Evaluate density.
 Using the total density.
 Monte-Carlo method of calculating molar volume:
 based on  0.001 e/bohr**3 density envelope.
 Number of points per bohr**3 =  100 CutOff= 1.00D-04
 Using the SCF density.
 There are      1741 points.  Will hold      1741 in memory.
 LenV=  1048302616 MDV=  1048576000.
 Box volume = 5284.243 fraction occupied=0.198
 Integrated density= 6.1936167282275527D+01 error=-4.0638327177244733D+00

 1\1\GINC-C324\SP\RwB97XD\def2SVPP\C4H11N1O3\PETERCHAO1\23-Sep-2022\0\\
 #T wB97XD//def2svpp Volume=tight Geom=AllCheckpoint Guess=Read\\Monome
 r\\0,1\N,0,-0.122212,0.074049,1.434121\C,0,-0.174685,-0.194031,-0.0021
 13\C,0,0.863227,-1.267122,-0.373331\O,0,2.158755,-0.963754,0.044024\C,
 0,-1.559344,-0.667681,-0.44784\O,0,-2.516093,0.23449,0.054373\C,0,0.18
 7594,1.144682,-0.688049\O,0,1.347109,1.6697,-0.090692\H,0,0.1865,-0.73
 309,1.972475\H,0,-1.034349,0.385314,1.768322\H,0,0.809083,-1.42933,-1.
 47285\H,0,0.584769,-2.224795,0.106318\H,0,2.305901,-0.013944,-0.123206

 Normal termination of Gaussian 16 at Fri Sep 23 14:21:48 2022.
