 Gaussian 16, Revision B.01,
 Gaussian 16:  ES64L-G16RevB.01 20-Dec-2017

 ----------------------------------------------------------------------
 #T wB97XD/def2svpp opt=tight freq int(grid=ultrafine) scf=(verytight,q
 c)
 ----------------------------------------------------------------------
 -----
 dimer
 -----
 Symbolic Z-matrix:
 Charge =  0 Multiplicity = 1

 SCF Done:  E(RwB97XD) =  -767.359844605     a.u. after    7 cycles
 SCF Done:  E(RwB97XD) =  -767.361358949     a.u. after    9 cycles
 SCF Done:  E(RwB97XD) =  -767.358579111     a.u. after   11 cycles
 SCF Done:  E(RwB97XD) =  -767.361962249     a.u. after    9 cycles
 SCF Done:  E(RwB97XD) =  -767.363673037     a.u. after    9 cycles
 SCF Done:  E(RwB97XD) =  -767.364118776     a.u. after    9 cycles
 SCF Done:  E(RwB97XD) =  -767.362543551     a.u. after    9 cycles
 SCF Done:  E(RwB97XD) =  -767.362310740     a.u. after    9 cycles
 SCF Done:  E(RwB97XD) =  -767.360938799     a.u. after    8 cycles
 SCF Done:  E(RwB97XD) =  -767.364144977     a.u. after    2 cycles
 SCF Done:  E(RwB97XD) =  -767.364624860     a.u. after    2 cycles
 SCF Done:  E(RwB97XD) =  -767.364624916     a.u. after    2 cycles
 SCF Done:  E(RwB97XD) =  -767.364624896     a.u. after    2 cycles
 SCF Done:  E(RwB97XD) =  -767.364624846     a.u. after    2 cycles
 SCF Done:  E(RwB97XD) =  -767.364624834     a.u. after    2 cycles
 SCF Done:  E(RwB97XD) =  -767.364624834     a.u. after    2 cycles
 SCF Done:  E(RwB97XD) =  -767.364624832     a.u. after    2 cycles
 SCF Done:  E(RwB97XD) =  -767.364624839     a.u. after    2 cycles
 SCF Done:  E(RwB97XD) =  -767.364624839     a.u. after    2 cycles
 Optimization completed.
    -- Stationary point found.

 1\1\GINC-C568\FOpt\RwB97XD\def2SVPP\C8H20O6\PETERCHAO1\09-Aug-2022\0\\
 #T wB97XD/def2svpp opt=tight freq int(grid=ultrafine) scf=(verytight,q
 c)\\dimer\\0,1\O,-1.7397678699,1.617247002,-0.3932476332\C,-2.36620796
 33,1.3380002862,0.836167177\C,-2.8507059099,-0.1163937642,0.9635627796
 \C,-3.6908727994,-0.5114968533,-0.2608625233\O,-2.9136541394,-0.514398
 6795,-1.4451330898\C,-1.7310519506,-1.1329829393,1.2108970098\O,-0.885
 6611077,-1.3103061009,0.0956948846\H,-0.7649006725,1.4905827441,-0.295
 9153396\H,-3.2442734338,2.0049705582,0.914091102\H,-1.6956557492,1.584

 Normal termination of Gaussian 16 at Tue Aug  9 16:55:38 2022.

 ---------------------------------------------------------------------
 #T Geom=AllCheck Guess=TCheck SCRF=Check GenChk RwB97XD/def2SVPP Freq
 ---------------------------------------------------------------------
 Structure from the checkpoint file:  "/scratch/user/peterchao1/peterchao1/6113320_1660079103000000690140297/Gau-36359.chk"
 -----
 dimer
 -----
 Charge =  0 Multiplicity = 1

                         Standard orientation:
 ---------------------------------------------------------------------
 Center     Atomic      Atomic             Coordinates (Angstroms)
 Number     Number       Type             X           Y           Z
 ---------------------------------------------------------------------
      1          8           0        1.690423   -1.691004   -0.286170
      2          6           0        2.352975   -1.320852    0.899528
      3          6           0        2.875590    0.125846    0.886462
      4          6           0        3.695283    0.388992   -0.386354
      5          8           0        2.889985    0.307745   -1.548880
      6          6           0        1.787258    1.189438    1.066899
      7          8           0        0.919732    1.289766   -0.040863
      8          1           0        0.721556   -1.530610   -0.179152
      9          1           0        3.216208   -2.001223    1.017189
     10          1           0        1.697268   -1.474324    1.779226
     11          1           0        3.558070    0.226993    1.751839
     12          1           0        4.538302   -0.328259   -0.446621
     13          1           0        4.127576    1.403964   -0.365485
     14          1           0        2.445814   -0.568601   -1.489042
     15          1           0        2.269902    2.169413    1.260597
     16          1           0        1.165486    0.951436    1.948074
     17          1           0        1.448989    1.136710   -0.854248
     18          8           0       -1.690425    1.690961    0.286323
     19          6           0       -2.352971    1.320925   -0.899415
     20          6           0       -2.875551   -0.125784   -0.886499
     21          6           0       -1.787178   -1.189331   -1.066967
     22          8           0       -0.919734   -1.289756    0.040851
     23          6           0       -3.695306   -0.389058    0.386251
     24          8           0       -2.890076   -0.307878    1.548829
     25          1           0       -0.721561    1.530559    0.179284
     26          1           0       -1.697265    1.474504   -1.779095
     27          1           0       -3.216217    2.001291   -1.017005
     28          1           0       -3.557982   -0.226876   -1.751922
     29          1           0       -1.165344   -0.951217   -1.948068
     30          1           0       -2.269781   -2.169298   -1.260807
     31          1           0       -1.449049   -1.136784    0.854215
     32          1           0       -4.127565   -1.404042    0.365278
     33          1           0       -4.538352    0.328161    0.446527
     34          1           0       -2.445896    0.568470    1.489072
 ---------------------------------------------------------------------

 SCF Done:  E(RwB97XD) =  -767.364624839     a.u. after    1 cycles

 The electronic state is 1-A.
 Alpha  occ. eigenvalues --  -19.25874 -19.25872 -19.25265 -19.25265 -19.24250
 Alpha  occ. eigenvalues --  -19.24250 -10.34705 -10.34705 -10.34467 -10.34467
 Alpha  occ. eigenvalues --  -10.34214 -10.34214 -10.30611 -10.30611  -1.13914
 Alpha  occ. eigenvalues --   -1.13256  -1.11515  -1.10638  -1.09753  -1.09429
 Alpha  occ. eigenvalues --   -0.89080  -0.88810  -0.77192  -0.76829  -0.76430
 Alpha  occ. eigenvalues --   -0.76410  -0.68776  -0.68104  -0.63059  -0.62997
 Alpha  occ. eigenvalues --   -0.62194  -0.59602  -0.58562  -0.58481  -0.55557
 Alpha  occ. eigenvalues --   -0.54487  -0.53936  -0.53391  -0.52823  -0.52370
 Alpha  occ. eigenvalues --   -0.49903  -0.49846  -0.49609  -0.48461  -0.48061
 Alpha  occ. eigenvalues --   -0.47808  -0.45959  -0.44714  -0.43664  -0.41668
 Alpha  occ. eigenvalues --   -0.40062  -0.39951  -0.37854  -0.36972  -0.35380
 Alpha  occ. eigenvalues --   -0.35119  -0.34264  -0.33971
 Alpha virt. eigenvalues --    0.11748   0.12541   0.15661   0.15978   0.17792
 Alpha virt. eigenvalues --    0.17888   0.18269   0.18869   0.19733   0.19937
 Alpha virt. eigenvalues --    0.20444   0.20699   0.21583   0.21591   0.22923

 Mulliken charges:
               1
     1  O   -0.548821
     2  C    0.048082
     3  C   -0.302409
     4  C    0.036353
     5  O   -0.529888
     6  C    0.076878
     7  O   -0.553273
     8  H    0.355693
     9  H    0.104213
    10  H    0.103125
    11  H    0.106270
    12  H    0.106997
    13  H    0.112597
    14  H    0.341300
    15  H    0.099846
    16  H    0.104143
    17  H    0.338893
    18  O   -0.548821
    19  C    0.048077
    20  C   -0.302406
    21  C    0.076877
    22  O   -0.553273
    23  C    0.036352
    24  O   -0.529888
    25  H    0.355694
    26  H    0.103127
    27  H    0.104213
    28  H    0.106271
    29  H    0.104143
    30  H    0.099847
    31  H    0.338894
    32  H    0.112597
    33  H    0.106996
    34  H    0.341300
 Sum of Mulliken charges =  -0.00000

 Dipole moment (field-independent basis, Debye):
    X=              0.0000    Y=              0.0001    Z=             -0.0001  Tot=              0.0002
  Exact polarizability: 122.029  -0.142  97.841   2.353   0.025  97.903
 Approx polarizability: 114.990   0.392 102.747   2.517   0.924 111.938
   1 Symmetry operations used in ECPInt.
 ECPInt:  NShTT=    7750 NPrTT=   31118 LenC2=    7444 LenP2D=   21344.
 LDataN:  DoStor=T MaxTD1= 6 Len=  172
 Calling FoFJK, ICntrl=    100127 FMM=F ISym2X=0 I1Cent= 0 IOpClX= 0 NMat=1 NMatS=1 NMatT=0.
 Full mass-weighted force constant matrix:
 Low frequencies ---   -8.4555   -7.4794    0.0005    0.0007    0.0014    2.2393
 Low frequencies ---   12.9940   33.3892   56.1105
 Diagonal vibrational polarizability:

                      1                      2                      3
                      A                      A                      A
 Frequencies --     12.9940                33.3892                56.0906
 Red. masses --      4.0927                 3.9955                 4.0264
 Frc consts  --      0.0004                 0.0026                 0.0075
 IR Inten    --      1.7276                 3.8787                 0.0000

                      4                      5                      6
                      A                      A                      A
 Frequencies --     81.5283                98.2459               100.9599
 Red. masses --      5.3976                 6.7944                 5.2382
 Frc consts  --      0.0211                 0.0386                 0.0315
 IR Inten    --      0.0000                13.0799                 0.0007

                      7                      8                      9
                      A                      A                      A
 Frequencies --    120.7399               150.3171               205.5159
 Red. masses --      2.9364                 3.2196                 6.5297
 Frc consts  --      0.0252                 0.0429                 0.1625
 IR Inten    --      6.1108                 0.0000                 0.0000

                     10                     11                     12
                      A                      A                      A
 Frequencies --    207.6200               235.7842               262.5886
 Red. masses --      4.6420                 3.8079                 3.2737
 Frc consts  --      0.1179                 0.1247                 0.1330
 IR Inten    --     25.9798                 0.0000                10.1503

                     13                     14                     15
                      A                      A                      A
 Frequencies --    294.9767               319.0251               327.6521
 Red. masses --      4.8722                 4.2457                 3.1056
 Frc consts  --      0.2498                 0.2546                 0.1964
 IR Inten    --     13.0876                 0.0000                 0.0000

                     16                     17                     18
                      A                      A                      A
 Frequencies --    330.3082               369.4532               370.9681
 Red. masses --      2.7863                 2.7276                 3.1827
 Frc consts  --      0.1791                 0.2194                 0.2581
 IR Inten    --      2.4402                 0.0000                 3.4792

                     19                     20                     21
                      A                      A                      A
 Frequencies --    450.7951               452.7759               478.1980
 Red. masses --      2.7344                 2.9363                 3.0846
 Frc consts  --      0.3274                 0.3547                 0.4156
 IR Inten    --      4.1846                 0.0000                 0.0000

                     22                     23                     24
                      A                      A                      A
 Frequencies --    489.6399               598.4266               607.3560
 Red. masses --      3.1773                 1.0956                 1.0925
 Frc consts  --      0.4488                 0.2312                 0.2374
 IR Inten    --      8.7140                 0.0001               410.9113

                     25                     26                     27
                      A                      A                      A
 Frequencies --    689.2108               705.4324               776.2917
 Red. masses --      1.0639                 1.0497                 3.4545
 Frc consts  --      0.2977                 0.3078                 1.2266
 IR Inten    --    344.7729                 0.0055                 0.0000

                     28                     29                     30
                      A                      A                      A
 Frequencies --    777.0096               863.1268               866.3346
 Red. masses --      3.4294                 2.6489                 2.6217
 Frc consts  --      1.2199                 1.1627                 1.1593
 IR Inten    --     29.0111                29.7150                 0.0000

                     31                     32                     33
                      A                      A                      A
 Frequencies --    923.9000               924.0674               946.2735
 Red. masses --      1.4272                 1.4641                 2.1840
 Frc consts  --      0.7177                 0.7366                 1.1522
 IR Inten    --    176.0707                 0.0111                 0.0000

                     34                     35                     36
                      A                      A                      A
 Frequencies --    947.5788               952.1968               959.9983
 Red. masses --      2.2131                 1.4731                 1.4365
 Frc consts  --      1.1708                 0.7870                 0.7800
 IR Inten    --      5.2220                 0.0000                38.1673

                     37                     38                     39
                      A                      A                      A
 Frequencies --    969.4862               969.4921              1041.8034
 Red. masses --      1.7911                 1.7155                 2.0907
 Frc consts  --      0.9919                 0.9500                 1.3370
 IR Inten    --     35.1660                 0.6163                10.8391

                     40                     41                     42
                      A                      A                      A
 Frequencies --   1046.9407              1052.5724              1056.5438
 Red. masses --      2.0815                 2.2231                 2.0565
 Frc consts  --      1.3442                 1.4512                 1.3525
 IR Inten    --      0.0000                 0.0000                11.7672

                     43                     44                     45
                      A                      A                      A
 Frequencies --   1144.5410              1148.6377              1166.6186
 Red. masses --      2.7589                 2.6201                 2.0227
 Frc consts  --      2.1294                 2.0367                 1.6219
 IR Inten    --    273.9856                 0.0000                 0.0000

                     46                     47                     48
                      A                      A                      A
 Frequencies --   1171.3329              1176.4090              1177.8685
 Red. masses --      2.4355                 2.4975                 3.0750
 Frc consts  --      1.9688                 2.0364                 2.5135
 IR Inten    --     79.8763               154.7244                 0.0000

                     49                     50                     51
                      A                      A                      A
 Frequencies --   1248.7947              1249.5495              1256.1890
 Red. masses --      1.0916                 1.1475                 1.1127
 Frc consts  --      1.0030                 1.0556                 1.0345
 IR Inten    --      0.0000                29.5378                 9.1813

                     52                     53                     54
                      A                      A                      A
 Frequencies --   1259.8016              1292.3912              1292.5409
 Red. masses --      1.1610                 1.0990                 1.1102
 Frc consts  --      1.0857                 1.0815                 1.0928
 IR Inten    --      0.0000                 7.6963                 0.0007

                     55                     56                     57
                      A                      A                      A
 Frequencies --   1371.2778              1371.8909              1375.7908
 Red. masses --      1.6083                 1.6464                 1.6505
 Frc consts  --      1.7818                 1.8257                 1.8407
 IR Inten    --      0.0000                14.1214                 0.0000

                     58                     59                     60
                      A                      A                      A
 Frequencies --   1377.7122              1400.2940              1400.4070
 Red. masses --      1.5805                 1.4059                 1.3783
 Frc consts  --      1.7675                 1.6242                 1.5926
 IR Inten    --      1.9859                 2.4197                 0.0001

                     61                     62                     63
                      A                      A                      A
 Frequencies --   1406.1588              1409.3438              1445.3767
 Red. masses --      1.2453                 1.2543                 1.3508
 Frc consts  --      1.4508                 1.4678                 1.6627
 IR Inten    --      0.0000                 0.4527                52.9599

                     64                     65                     66
                      A                      A                      A
 Frequencies --   1450.1755              1491.2999              1493.3507
 Red. masses --      1.3714                 1.1864                 1.1386
 Frc consts  --      1.6993                 1.5546                 1.4960
 IR Inten    --      0.0000                 0.0000                 3.6607

                     67                     68                     69
                      A                      A                      A
 Frequencies --   1499.0327              1502.0192              1509.6483
 Red. masses --      1.1589                 1.2049                 1.0715
 Frc consts  --      1.5344                 1.6016                 1.4387
 IR Inten    --      0.0000                58.5059                 0.0000

                     70                     71                     72
                      A                      A                      A
 Frequencies --   1510.9947              1513.4277              1519.0893
 Red. masses --      1.1373                 1.0921                 1.0721
 Frc consts  --      1.5299                 1.4738                 1.4576
 IR Inten    --     62.3651                76.5265                 0.0000

                     73                     74                     75
                      A                      A                      A
 Frequencies --   1525.5211              1530.9536              1553.0119
 Red. masses --      1.1260                 1.2048                 1.1234
 Frc consts  --      1.5439                 1.6638                 1.5963
 IR Inten    --     18.9108                 0.0000                 0.0000

                     76                     77                     78
                      A                      A                      A
 Frequencies --   1567.7162              3001.3920              3001.8576
 Red. masses --      1.1200                 1.0683                 1.0681
 Frc consts  --      1.6218                 5.6701                 5.6707
 IR Inten    --    250.2483               137.8519                 0.0008

                     79                     80                     81
                      A                      A                      A
 Frequencies --   3014.3580              3014.6666              3015.9270
 Red. masses --      1.0639                 1.0641                 1.0665
 Frc consts  --      5.6954                 5.6976                 5.7154
 IR Inten    --      0.0000                92.7311               155.4296

                     82                     83                     84
                      A                      A                      A
 Frequencies --   3016.6065              3051.4200              3051.8011
 Red. masses --      1.0672                 1.0861                 1.0861
 Frc consts  --      5.7219                 5.9585                 5.9600
 IR Inten    --      0.0000                95.1653                 0.0002

                     85                     86                     87
                      A                      A                      A
 Frequencies --   3078.8172              3079.2217              3084.0746
 Red. masses --      1.1069                 1.1066                 1.1018
 Frc consts  --      6.1821                 6.1818                 6.1747
 IR Inten    --     87.2907                 0.0003                 0.0002

                     88                     89                     90
                      A                      A                      A
 Frequencies --   3084.5613              3099.3281              3099.4317
 Red. masses --      1.1016                 1.1023                 1.1024
 Frc consts  --      6.1754                 6.2387                 6.2395
 IR Inten    --     85.1038                 0.0004                80.4126

                     91                     92                     93
                      A                      A                      A
 Frequencies --   3365.0053              3406.8053              3450.6551
 Red. masses --      1.0692                 1.0679                 1.0679
 Frc consts  --      7.1329                 7.3023                 7.4917
 IR Inten    --      0.0002              3041.2001               465.1755

                     94                     95                     96
                      A                      A                      A
 Frequencies --   3470.3703              3504.4290              3508.7566
 Red. masses --      1.0659                 1.0657                 1.0647
 Frc consts  --      7.5636                 7.7110                 7.7229
 IR Inten    --      0.0001                 0.0004               388.8227

                           ! Non-Optimized Parameters !

 1\1\GINC-C568\Freq\RwB97XD\def2SVPP\C8H20O6\PETERCHAO1\09-Aug-2022\0\\
 #T Geom=AllCheck Guess=TCheck SCRF=Check GenChk RwB97XD/def2SVPP Freq\
 \dimer\\0,1\O,-1.7397678699,1.617247002,-0.3932476332\C,-2.3662079633,
 1.3380002862,0.836167177\C,-2.8507059099,-0.1163937642,0.9635627796\C,
 -3.6908727994,-0.5114968533,-0.2608625233\O,-2.9136541394,-0.514398679
 5,-1.4451330898\C,-1.7310519506,-1.1329829393,1.2108970098\O,-0.885661
 1077,-1.3103061009,0.0956948846\H,-0.7649006725,1.4905827441,-0.295915
 3396\H,-3.2442734338,2.0049705582,0.914091102\H,-1.6956557492,1.584960

 Normal termination of Gaussian 16 at Tue Aug  9 17:03:00 2022.
