 Gaussian 16, Revision B.01,
 Gaussian 16:  ES64L-G16RevB.01 20-Dec-2017

 --------------------------------------------------------------
 #T wB97XD//def2svpp Volume=tight Geom=AllCheckpoint Guess=Read
 --------------------------------------------------------------
 Structure from the checkpoint file:  "34.chk"
 -------
 Monomer
 -------
 Charge =  0 Multiplicity = 1

                         Standard orientation:
 ---------------------------------------------------------------------
 Center     Atomic      Atomic             Coordinates (Angstroms)
 Number     Number       Type             X           Y           Z
 ---------------------------------------------------------------------
      1          6           0       -2.851977   -0.578423   -0.001088
      2          6           0       -1.369658   -0.846062   -0.267220
      3          6           0       -0.392400    0.332725   -0.008325
      4          6           0       -0.587264    1.381823   -1.119048
      5          6           0       -0.741555    1.002410    1.333624
      6          6           0        1.105260   -0.194398    0.005131
      7          6           0        1.377382   -1.159081   -1.164929
      8          6           0        2.108941    0.968083   -0.117164
      9          6           0        1.423450   -0.943298    1.313116
     10          1           0       -3.056322   -0.404071    1.068519
     11          1           0       -3.453047   -1.450558   -0.310995
     12          1           0       -3.229749    0.293977   -0.561960
     13          1           0       -1.260183   -1.168245   -1.317459
     14          1           0       -1.069950   -1.712490    0.348972
     15          1           0       -1.654376    1.640975   -1.225774
     16          1           0       -0.238198    1.017609   -2.100788
     17          1           0       -0.052056    2.319357   -0.894296
     18          1           0       -1.697126    1.548748    1.257878
     19          1           0        0.025059    1.736537    1.634876
     20          1           0       -0.845737    0.267613    2.150120
     21          1           0        1.084094   -0.728106   -2.137897
     22          1           0        0.849484   -2.119581   -1.045083
     23          1           0        2.457285   -1.385023   -1.219054
     24          1           0        1.925015    1.761862    0.627300
     25          1           0        2.087629    1.429180   -1.118710
     26          1           0        3.135333    0.595275    0.048963
     27          1           0        0.691182   -1.739984    1.530399
     28          1           0        1.452543   -0.263509    2.181101
     29          1           0        2.416047   -1.422238    1.239317
 ---------------------------------------------------------------------

 SCF Done:  E(RwB97XD) =  -354.622720286     A.U. after    1 cycles

 The electronic state is 1-A.
 Alpha  occ. eigenvalues --  -10.30477 -10.30407 -10.28267 -10.27807 -10.27523
 Alpha  occ. eigenvalues --  -10.27521 -10.27507 -10.27486 -10.27460  -0.93157
 Alpha  occ. eigenvalues --   -0.86692  -0.81568  -0.78142  -0.76804  -0.75240
 Alpha  occ. eigenvalues --   -0.71703  -0.65842  -0.58832  -0.56559  -0.54200
 Alpha  occ. eigenvalues --   -0.53262  -0.52025  -0.51540  -0.48492  -0.48312
 Alpha  occ. eigenvalues --   -0.46758  -0.45518  -0.45069  -0.44409  -0.44200
 Alpha  occ. eigenvalues --   -0.43810  -0.42811  -0.41811  -0.41162  -0.38046
 Alpha  occ. eigenvalues --   -0.37486  -0.37258
 Alpha virt. eigenvalues --    0.12434   0.15613   0.16694   0.17384   0.18071
 Alpha virt. eigenvalues --    0.18299   0.18757   0.20157   0.21004   0.21825
 Alpha virt. eigenvalues --    0.22220   0.23421   0.23752   0.24472   0.24813

 Mulliken charges:
               1
     1  C   -0.311421
     2  C   -0.193410
     3  C   -0.185506
     4  C   -0.284203
     5  C   -0.288827
     6  C   -0.206444
     7  C   -0.274293
     8  C   -0.275691
     9  C   -0.277106
    10  H    0.118278
    11  H    0.117927
    12  H    0.117174
    13  H    0.103363
    14  H    0.103191
    15  H    0.115227
    16  H    0.114357
    17  H    0.117655
    18  H    0.119655
    19  H    0.116211
    20  H    0.119396
    21  H    0.115013
    22  H    0.118255
    23  H    0.111097
    24  H    0.115568
    25  H    0.117662
    26  H    0.111149
    27  H    0.117429
    28  H    0.117070
    29  H    0.111225
 Sum of Mulliken charges =  -0.00000

 Dipole moment (field-independent basis, Debye):
    X=             -0.0313    Y=             -0.0464    Z=              0.0049  Tot=              0.0562
 Evaluate density.
 Using the total density.
 Monte-Carlo method of calculating molar volume:
 based on  0.001 e/bohr**3 density envelope.
 Number of points per bohr**3 =  100 CutOff= 1.00D-04
 Using the SCF density.
 There are      1920 points.  Will hold      1920 in memory.
 LenV=  1048203059 MDV=  1048576000.
 Box volume = 7086.987 fraction occupied=0.178
 Integrated density= 6.4797995813517531D+01 error=-9.2020041864824691D+00

 Normal termination of Gaussian 16 at Thu Feb  2 13:16:19 2023.
