 Gaussian 16, Revision B.01,
 Gaussian 16:  ES64L-G16RevB.01 20-Dec-2017

 --------------------------------------------------------------
 #T wB97XD//def2svpp Volume=tight Geom=AllCheckpoint Guess=Read
 --------------------------------------------------------------
 Structure from the checkpoint file:  "monomer.chk"
 -------
 Monomer
 -------
 Charge =  0 Multiplicity = 1

                         Standard orientation:
 ---------------------------------------------------------------------
 Center     Atomic      Atomic             Coordinates (Angstroms)
 Number     Number       Type             X           Y           Z
 ---------------------------------------------------------------------
      1          6           0       -1.809072   -1.345686    0.033869
      2          6           0       -0.988445   -0.321751    0.815986
      3          6           0       -0.000000    0.543395   -0.000000
      4          6           0       -0.766211    1.444547   -0.981287
      5          6           0        0.766213    1.444543    0.981288
      6          6           0        0.988443   -0.321752   -0.815987
      7          6           0        1.809072   -1.345686   -0.033870
      8          1           0       -2.417626   -0.872561   -0.755739
      9          1           0       -2.502270   -1.877321    0.708199
     10          1           0       -1.170022   -2.107090   -0.445948
     11          1           0       -0.427956   -0.847547    1.610954
     12          1           0       -1.678854    0.362289    1.344931
     13          1           0       -1.506611    2.070576   -0.450982
     14          1           0       -1.303663    0.857919   -1.746475
     15          1           0       -0.072755    2.120911   -1.512790
     16          1           0        1.303663    0.857912    1.746475
     17          1           0        0.072759    2.120908    1.512793
     18          1           0        1.506614    2.070571    0.450984
     19          1           0        1.678852    0.362287   -1.344933
     20          1           0        0.427953   -0.847548   -1.610954
     21          1           0        2.417635   -0.872558    0.755729
     22          1           0        2.502262   -1.877330   -0.708201
     23          1           0        1.170022   -2.107083    0.445958
 ---------------------------------------------------------------------

 SCF Done:  E(RwB97XD) =  -276.087334565     A.U. after    1 cycles

 The electronic state is 1-A.
 Alpha  occ. eigenvalues --  -10.30163 -10.28357 -10.28354 -10.27846 -10.27846
 Alpha  occ. eigenvalues --  -10.27570 -10.27569  -0.92031  -0.83383  -0.81714
 Alpha  occ. eigenvalues --   -0.76909  -0.71197  -0.70339  -0.60558  -0.55248
 Alpha  occ. eigenvalues --   -0.55192  -0.52121  -0.51277  -0.48544  -0.48095
 Alpha  occ. eigenvalues --   -0.46387  -0.45859  -0.44223  -0.43943  -0.42291
 Alpha  occ. eigenvalues --   -0.41694  -0.38969  -0.38805  -0.38072
 Alpha virt. eigenvalues --    0.12670   0.16019   0.16448   0.17422   0.18990
 Alpha virt. eigenvalues --    0.19088   0.20741   0.21108   0.21245   0.22477
 Alpha virt. eigenvalues --    0.24673   0.25238   0.25409   0.26747   0.28258

 Mulliken charges:
               1
     1  C   -0.322099
     2  C   -0.183839
     3  C   -0.239277
     4  C   -0.269210
     5  C   -0.269210
     6  C   -0.183839
     7  C   -0.322099
     8  H    0.117814
     9  H    0.119532
    10  H    0.120323
    11  H    0.102626
    12  H    0.095943
    13  H    0.110891
    14  H    0.117040
    15  H    0.110617
    16  H    0.117040
    17  H    0.110617
    18  H    0.110891
    19  H    0.095943
    20  H    0.102626
    21  H    0.117814
    22  H    0.119532
    23  H    0.120323
 Sum of Mulliken charges =  -0.00000

 Dipole moment (field-independent basis, Debye):
    X=              0.0000    Y=             -0.0698    Z=              0.0000  Tot=              0.0698
 Evaluate density.
 Using the total density.
 Monte-Carlo method of calculating molar volume:
 based on  0.001 e/bohr**3 density envelope.
 Number of points per bohr**3 =  100 CutOff= 1.00D-04
 Using the SCF density.
 There are      1825 points.  Will hold      1825 in memory.
 LenV=  1048300707 MDV=  1048576000.
 Box volume = 6082.144 fraction occupied=0.191
 Integrated density= 4.4023528283014073D+01 error=-1.3976471716985927D+01

 Normal termination of Gaussian 16 at Tue Apr  2 13:52:00 2024.
