 Gaussian 16, Revision B.01,
 Gaussian 16:  ES64L-G16RevB.01 20-Dec-2017

 ----------------------------------------------------------------------
 #T wB97XD/def2svpp opt=tight freq int(grid=ultrafine) scf=(verytight,q
 c)
 ----------------------------------------------------------------------
 -------
 comment
 -------
 Symbolic Z-matrix:
 Charge =  1 Multiplicity = 2

 SCF Done:  E(UwB97XD) =  -347.444779090     a.u. after    9 cycles
 SCF Done:  E(UwB97XD) =  -347.457249265     a.u. after   10 cycles
 SCF Done:  E(UwB97XD) =  -347.461342476     a.u. after   11 cycles
 SCF Done:  E(UwB97XD) =  -347.462346886     a.u. after    7 cycles
 SCF Done:  E(UwB97XD) =  -347.463070071     a.u. after   10 cycles
 SCF Done:  E(UwB97XD) =  -347.463538409     a.u. after    7 cycles
 SCF Done:  E(UwB97XD) =  -347.464049386     a.u. after   10 cycles
 SCF Done:  E(UwB97XD) =  -347.464576754     a.u. after   13 cycles
 SCF Done:  E(UwB97XD) =  -347.464847400     a.u. after    6 cycles
 SCF Done:  E(UwB97XD) =  -347.464931928     a.u. after    6 cycles
 SCF Done:  E(UwB97XD) =  -347.467839773     a.u. after    4 cycles
 SCF Done:  E(UwB97XD) =  -347.467861564     a.u. after    4 cycles
 SCF Done:  E(UwB97XD) =  -347.467864506     a.u. after    2 cycles
 SCF Done:  E(UwB97XD) =  -347.467867504     a.u. after    2 cycles
 SCF Done:  E(UwB97XD) =  -347.467867922     a.u. after    2 cycles
 SCF Done:  E(UwB97XD) =  -347.467867935     a.u. after    2 cycles
 SCF Done:  E(UwB97XD) =  -347.467867949     a.u. after    2 cycles
 SCF Done:  E(UwB97XD) =  -347.467867953     a.u. after    2 cycles
 SCF Done:  E(UwB97XD) =  -347.467867954     a.u. after    2 cycles
 Optimization completed.
    -- Stationary point found.
 Normal termination of Gaussian 16 at Mon Jul 10 19:49:28 2023.

 ---------------------------------------------------------------------
 #T Geom=AllCheck Guess=TCheck SCRF=Check GenChk UwB97XD/def2SVPP Freq
 ---------------------------------------------------------------------
 Structure from the checkpoint file:  "12.chk"
 -------
 comment
 -------
 Charge =  1 Multiplicity = 2

                         Standard orientation:
 ---------------------------------------------------------------------
 Center     Atomic      Atomic             Coordinates (Angstroms)
 Number     Number       Type             X           Y           Z
 ---------------------------------------------------------------------
      1          6           0       -0.514181    1.764594   -0.562941
      2          6           0        0.122145    0.555985    0.060829
      3          6           0       -0.023880    0.419899    1.551009
      4          6           0       -0.914371   -0.917965   -0.612077
      5          8           0       -2.105644   -0.914671   -0.067624
      6          6           0        1.468329    0.164186   -0.498909
      7          8           0        1.880351   -1.041025    0.057216
      8          1           0       -1.583882    1.838711   -0.309884
      9          1           0       -0.390284    1.798136   -1.657274
     10          1           0       -0.022699    2.662864   -0.138952
     11          1           0       -1.043253    0.662125    1.890889
     12          1           0        0.657273    1.162236    2.012612
     13          1           0        0.296778   -0.566596    1.921533
     14          1           0       -0.182035   -1.680452   -0.293028
     15          1           0       -0.949983   -0.631690   -1.670688
     16          1           0       -2.140622   -1.374112    0.793053
     17          1           0        2.136147    1.010915   -0.212668
     18          1           0        1.443553    0.142464   -1.606657
     19          1           0        2.753091   -1.299224   -0.273140
 ---------------------------------------------------------------------

 SCF Done:  E(UwB97XD) =  -347.467867954     a.u. after    1 cycles

 The electronic state is 2-A.
 Alpha  occ. eigenvalues --  -19.52709 -19.43386 -10.58911 -10.55495 -10.53023
 Alpha  occ. eigenvalues --  -10.46654 -10.46632  -1.40019  -1.30218  -1.11268
 Alpha  occ. eigenvalues --   -0.99660  -0.97063  -0.96207  -0.86695  -0.81529
 Alpha  occ. eigenvalues --   -0.79842  -0.78104  -0.76764  -0.72547  -0.71352
 Alpha  occ. eigenvalues --   -0.67719  -0.67253  -0.65399  -0.64580  -0.63512
 Alpha  occ. eigenvalues --   -0.62443  -0.60156  -0.55027  -0.52321
 Alpha virt. eigenvalues --   -0.08223  -0.05389  -0.02836  -0.00743   0.01483
 Alpha virt. eigenvalues --    0.03567   0.04739   0.05210   0.05645   0.06939
 Alpha virt. eigenvalues --    0.07461   0.08830   0.10233   0.11469   0.12251

  Beta  occ. eigenvalues --  -19.52111 -19.43344 -10.58573 -10.55049 -10.53014
  Beta  occ. eigenvalues --  -10.46653 -10.46636  -1.38619  -1.30089  -1.09921
  Beta  occ. eigenvalues --   -0.98252  -0.96730  -0.95901  -0.85511  -0.80235
  Beta  occ. eigenvalues --   -0.79452  -0.77314  -0.74631  -0.72085  -0.69920
  Beta  occ. eigenvalues --   -0.67174  -0.65044  -0.64714  -0.63909  -0.63154
  Beta  occ. eigenvalues --   -0.62167  -0.59658  -0.53886
  Beta virt. eigenvalues --   -0.28655  -0.05209  -0.03662  -0.02676  -0.00611
  Beta virt. eigenvalues --    0.01744   0.03806   0.04866   0.05381   0.05896
  Beta virt. eigenvalues --    0.07216   0.07786   0.09050   0.10608   0.11843

 Mulliken charges and spin densities:
               1          2
     1  C   -0.272355  -0.014620
     2  C   -0.389885   0.380213
     3  C   -0.304456  -0.005935
     4  C   -0.006700   0.256679
     5  O   -0.273985   0.224513
     6  C    0.066531  -0.009381
     7  O   -0.466083   0.016192
     8  H    0.187844   0.007922
     9  H    0.172335   0.001345
    10  H    0.200592   0.036333
    11  H    0.172656   0.000960
    12  H    0.199866   0.032297
    13  H    0.186052   0.003861
    14  H    0.230318   0.012945
    15  H    0.206602   0.006665
    16  H    0.394184  -0.008091
    17  H    0.181479   0.051356
    18  H    0.149186   0.007557
    19  H    0.365820  -0.000809
 Sum of Mulliken charges =   1.00000   1.00000

 Dipole moment (field-independent basis, Debye):
    X=              0.3244    Y=             -0.4980    Z=             -0.3460  Tot=              0.6877
  Exact polarizability:  73.550   5.215  63.711  -1.322   0.370  57.392
 Approx polarizability:  73.682   4.963  65.229  -0.973  -0.150  60.453
                          Isotropic Fermi Contact Couplings
        Atom                 a.u.       MegaHertz       Gauss      10(-4) cm-1
     1  C(13)             -0.00894     -10.04976      -3.58600      -3.35224
     2  C(13)              0.04622      51.96247      18.54150      17.33282
     3  C(13)             -0.00818      -9.19163      -3.27980      -3.06600
     4  C(13)              0.02895      32.54275      11.61206      10.85509
     5  O(17)              0.09700     -58.80027     -20.98140     -19.61366
     6  C(13)             -0.00924     -10.38721      -3.70642      -3.46480

                      1                      2                      3
                      A                      A                      A
 Frequencies --    113.6673               145.9758               207.1892
 Red. masses --      2.7096                 3.1367                 2.7083
 Frc consts  --      0.0206                 0.0394                 0.0685
 IR Inten    --      6.0660                 9.3651                 0.7475

                      4                      5                      6
                      A                      A                      A
 Frequencies --    225.9344               228.9092               260.2045
 Red. masses --      1.2947                 2.7333                 1.7031
 Frc consts  --      0.0389                 0.0844                 0.0679
 IR Inten    --      0.5307                 8.9620                 2.5851

                      7                      8                      9
                      A                      A                      A
 Frequencies --    277.1001               309.2856               346.7997
 Red. masses --      1.2744                 2.2676                 1.5395
 Frc consts  --      0.0577                 0.1278                 0.1091
 IR Inten    --     23.5897                21.1655                38.3462

                     10                     11                     12
                      A                      A                      A
 Frequencies --    377.2961               420.4515               438.7108
 Red. masses --      2.3727                 2.3890                 2.3121
 Frc consts  --      0.1990                 0.2488                 0.2622
 IR Inten    --     17.4439                 7.2421                 2.1499

                     13                     14                     15
                      A                      A                      A
 Frequencies --    521.7201               546.2333               797.7664
 Red. masses --      1.2421                 3.7273                 2.9177
 Frc consts  --      0.1992                 0.6552                 1.0941
 IR Inten    --    162.0359                 6.2527                14.2940

                     16                     17                     18
                      A                      A                      A
 Frequencies --    867.6553               908.4427               921.7940
 Red. masses --      1.4645                 1.1393                 1.2488
 Frc consts  --      0.6496                 0.5540                 0.6252
 IR Inten    --     13.7710                28.5671                 9.1071

                     19                     20                     21
                      A                      A                      A
 Frequencies --    995.9845              1005.3105              1118.5089
 Red. masses --      1.4257                 1.5454                 1.6704
 Frc consts  --      0.8333                 0.9202                 1.2312
 IR Inten    --      0.6232                10.7347                72.7554

                     22                     23                     24
                      A                      A                      A
 Frequencies --   1136.7262              1170.7024              1197.4615
 Red. masses --      1.1772                 1.9666                 1.6985
 Frc consts  --      0.8962                 1.5880                 1.4350
 IR Inten    --     72.3379                20.6259                99.2570

                     25                     26                     27
                      A                      A                      A
 Frequencies --   1205.9732              1257.9135              1280.2577
 Red. masses --      1.3288                 1.1869                 2.2906
 Frc consts  --      1.1386                 1.1065                 2.2121
 IR Inten    --      9.4004                11.5020                 3.9343

                     28                     29                     30
                      A                      A                      A
 Frequencies --   1326.1417              1349.6772              1392.9382
 Red. masses --      1.7974                 2.3256                 1.3239
 Frc consts  --      1.8624                 2.4960                 1.5134
 IR Inten    --     26.0465               257.6010                22.4832

                     31                     32                     33
                      A                      A                      A
 Frequencies --   1398.0667              1408.0765              1440.6499
 Red. masses --      1.2905                 1.2820                 1.1525
 Frc consts  --      1.4861                 1.4976                 1.4093
 IR Inten    --      9.5233                32.1930                11.4842

                     34                     35                     36
                      A                      A                      A
 Frequencies --   1452.2887              1469.8926              1476.8356
 Red. masses --      1.1796                 1.0780                 1.0919
 Frc consts  --      1.4659                 1.3722                 1.4031
 IR Inten    --      6.5796                 4.2805                 0.1864

                     37                     38                     39
                      A                      A                      A
 Frequencies --   1494.5721              1507.4523              1548.4028
 Red. masses --      1.1830                 1.1519                 1.4091
 Frc consts  --      1.5569                 1.5423                 1.9905
 IR Inten    --      9.8549                23.1549                 9.8899

                     40                     41                     42
                      A                      A                      A
 Frequencies --   2952.4889              3022.8736              3029.7715
 Red. masses --      1.0667                 1.0441                 1.0446
 Frc consts  --      5.4788                 5.6213                 5.6499
 IR Inten    --     27.5901                 6.0152                 8.0382

                     43                     44                     45
                      A                      A                      A
 Frequencies --   3046.4731              3075.0820              3121.5466
 Red. masses --      1.0954                 1.0577                 1.0929
 Frc consts  --      5.9898                 5.8926                 6.2742
 IR Inten    --     13.0330                16.3866                 4.5457

                     46                     47                     48
                      A                      A                      A
 Frequencies --   3124.4086              3165.9028              3172.7648
 Red. masses --      1.0931                 1.1081                 1.1094
 Frc consts  --      6.2873                 6.5438                 6.5796
 IR Inten    --      6.7741                 0.9030                 0.3678

                     49                     50                     51
                      A                      A                      A
 Frequencies --   3230.1069              3659.8702              3766.7860
 Red. masses --      1.1200                 1.0671                 1.0673
 Frc consts  --      6.8852                 8.4212                 8.9224
 IR Inten    --     10.2018               238.9251               172.8806

 Optimization completed.
    -- Stationary point found.
 Normal termination of Gaussian 16 at Mon Jul 10 19:51:41 2023.
