 Gaussian 16, Revision B.01,
 Gaussian 16:  ES64L-G16RevB.01 20-Dec-2017

 --------------------------------------------------------------
 #T wB97XD//def2svpp Volume=tight Geom=AllCheckpoint Guess=Read
 --------------------------------------------------------------
 Structure from the checkpoint file:  "6.chk"
 -------
 Monomer
 -------
 Charge =  0 Multiplicity = 1

                         Standard orientation:
 ---------------------------------------------------------------------
 Center     Atomic      Atomic             Coordinates (Angstroms)
 Number     Number       Type             X           Y           Z
 ---------------------------------------------------------------------
      1          9           0       -1.598350   -0.060863    1.529295
      2          6           0       -0.240554    0.054353    1.388814
      3          6           0        0.163119    0.001910   -0.086809
      4          6           0       -0.415675    1.202600   -0.837395
      5          9           0        0.138593    2.368657   -0.358014
      6          6           0        1.689392    0.047315   -0.175574
      7          9           0        2.232568   -1.099861    0.357021
      8          6           0       -0.323850   -1.285284   -0.765284
      9          9           0       -1.665512   -1.230238   -1.039048
     10          1           0        0.240995   -0.770553    1.941818
     11          1           0        0.074110    1.016963    1.828983
     12          1           0       -1.506247    1.248089   -0.698520
     13          1           0       -0.191115    1.133694   -1.917553
     14          1           0        2.091340    0.912512    0.376883
     15          1           0        2.010062    0.122640   -1.230602
     16          1           0       -0.129393   -2.160230   -0.123124
     17          1           0        0.209973   -1.427745   -1.723691
 ---------------------------------------------------------------------

 SCF Done:  E(RwB97XD) =  -594.063888027     A.U. after    1 cycles

 The electronic state is 1-A.
 Alpha  occ. eigenvalues --  -24.81533 -24.81052 -24.80508 -24.80174 -10.38849
 Alpha  occ. eigenvalues --  -10.38278 -10.38133 -10.37628 -10.33613  -1.29774
 Alpha  occ. eigenvalues --   -1.29280  -1.28983  -1.28350  -0.94537  -0.79988
 Alpha  occ. eigenvalues --   -0.79473  -0.79391  -0.67838  -0.63106  -0.63054
 Alpha  occ. eigenvalues --   -0.62682  -0.60156  -0.59919  -0.57811  -0.57192
 Alpha  occ. eigenvalues --   -0.56559  -0.54718  -0.54301  -0.54039  -0.49584
 Alpha  occ. eigenvalues --   -0.46633  -0.45391  -0.44426  -0.43055  -0.42276
 Alpha  occ. eigenvalues --   -0.41234  -0.40510
 Alpha virt. eigenvalues --    0.12846   0.14013   0.15255   0.16159   0.18052
 Alpha virt. eigenvalues --    0.19428   0.21338   0.21411   0.22118   0.24079
 Alpha virt. eigenvalues --    0.24445   0.26074   0.29813   0.30807   0.31282

 Mulliken charges:
               1
     1  F   -0.268577
     2  C    0.148149
     3  C   -0.460650
     4  C    0.140429
     5  F   -0.278828
     6  C    0.131472
     7  F   -0.275125
     8  C    0.153601
     9  F   -0.265979
    10  H    0.121263
    11  H    0.119220
    12  H    0.144849
    13  H    0.111549
    14  H    0.130840
    15  H    0.114080
    16  H    0.126322
    17  H    0.107384
 Sum of Mulliken charges =  -0.00000

 Dipole moment (field-independent basis, Debye):
    X=              1.7782    Y=              0.0464    Z=             -0.9776  Tot=              2.0298
 Evaluate density.
 Using the total density.
 Monte-Carlo method of calculating molar volume:
 based on  0.001 e/bohr**3 density envelope.
 Number of points per bohr**3 =  100 CutOff= 1.00D-04
 Using the SCF density.
 There are      1758 points.  Will hold      1758 in memory.
 LenV=  1048281881 MDV=  1048576000.
 Box volume = 5434.771 fraction occupied=0.170
 Integrated density= 7.2307501020286807D+01 error=-1.6924989797131929D+00

 Normal termination of Gaussian 16 at Fri Sep 23 14:21:15 2022.
