 Gaussian 16, Revision B.01,
 Gaussian 16:  ES64L-G16RevB.01 20-Dec-2017

 ----------------------------------------------------------------------
 #T wB97XD/def2svpp opt=tight freq int(grid=ultrafine) scf=(verytight,q
 c) Volume=tight
 ----------------------------------------------------------------------
 -------
 Monomer
 -------
 Symbolic Z-matrix:
 Charge =  0 Multiplicity = 1

 SCF Done:  E(RwB97XD) =  -233.398798089     a.u. after    7 cycles
 SCF Done:  E(RwB97XD) =  -233.400451786     a.u. after    6 cycles
 SCF Done:  E(RwB97XD) =  -233.400518874     a.u. after    4 cycles
 SCF Done:  E(RwB97XD) =  -233.400529700     a.u. after    3 cycles
 SCF Done:  E(RwB97XD) =  -233.400532003     a.u. after    3 cycles
 SCF Done:  E(RwB97XD) =  -233.400533080     a.u. after    3 cycles
 SCF Done:  E(RwB97XD) =  -233.400533320     a.u. after    3 cycles
 SCF Done:  E(RwB97XD) =  -233.400533381     a.u. after    2 cycles
 SCF Done:  E(RwB97XD) =  -233.400533384     a.u. after    2 cycles
 SCF Done:  E(RwB97XD) =  -233.400533384     a.u. after    2 cycles
 Optimization completed.
    -- Stationary point found.

 1\1\GINC-C200\FOpt\RwB97XD\def2SVPP\C4H10O1\PETERCHAO1\29-Mar-2024\0\\
 #T wB97XD/def2svpp opt=tight freq int(grid=ultrafine) scf=(verytight,q
 c) Volume=tight\\Monomer\\0,1\C,1.7565968726,0.8054172049,0.012476406\
 C,0.5037252677,-0.0028131773,-0.3256584763\C,0.6280600935,-1.460635078
 5,0.1154495172\C,-0.7403618188,0.6566353943,0.2785859691\O,-1.93834825
 27,-0.0137793293,-0.0226116547\H,1.9248377773,0.8297550484,1.104994342
 2\H,1.6759346212,1.8490782643,-0.3401538693\H,2.65286536,0.3607097747,
 -0.4532253131\H,0.3763801741,0.0140656612,-1.4278489665\H,-0.295445487

 Normal termination of Gaussian 16 at Fri Mar 29 15:36:55 2024.

 ---------------------------------------------------------------------
 #T Geom=AllCheck Guess=TCheck SCRF=Check GenChk RwB97XD/def2SVPP Freq
 ---------------------------------------------------------------------
 Structure from the checkpoint file:  "monomer.chk"
 -------
 Monomer
 -------
 Charge =  0 Multiplicity = 1

                         Standard orientation:
 ---------------------------------------------------------------------
 Center     Atomic      Atomic             Coordinates (Angstroms)
 Number     Number       Type             X           Y           Z
 ---------------------------------------------------------------------
      1          6           0       -1.710988   -0.781303   -0.002289
      2          6           0       -0.444141    0.008417   -0.331989
      3          6           0       -0.543861    1.464009    0.122531
      4          6           0        0.787915   -0.677840    0.267030
      5          8           0        1.997488   -0.025310   -0.027052
      6          1           0       -1.880600   -0.812870    1.089831
      7          1           0       -1.647913   -1.822884   -0.364526
      8          1           0       -2.599083   -0.316995   -0.464507
      9          1           0       -0.316116   -0.000435   -1.434194
     10          1           0        0.389276    2.008137   -0.096095
     11          1           0       -0.716147    1.518948    1.213445
     12          1           0       -1.379074    1.983371   -0.379097
     13          1           0        0.814966   -1.738816   -0.061783
     14          1           0        0.708013   -0.682932    1.368359
     15          1           0        2.113221   -0.012734   -0.986714
 ---------------------------------------------------------------------

 SCF Done:  E(RwB97XD) =  -233.400533384     a.u. after    1 cycles

 The electronic state is 1-A.
 Alpha  occ. eigenvalues --  -19.24627 -10.33199 -10.29810 -10.28521 -10.27732
 Alpha  occ. eigenvalues --   -1.11010  -0.89307  -0.77281  -0.76053  -0.66446
 Alpha  occ. eigenvalues --   -0.58538  -0.56123  -0.53299  -0.49945  -0.48314
 Alpha  occ. eigenvalues --   -0.46703  -0.44681  -0.42531  -0.41386  -0.39514
 Alpha  occ. eigenvalues --   -0.34935
 Alpha virt. eigenvalues --    0.12879   0.14799   0.17513   0.18545   0.20736
 Alpha virt. eigenvalues --    0.21052   0.22212   0.23507   0.24420   0.26146
 Alpha virt. eigenvalues --    0.29984   0.31274   0.31527   0.33465   0.48761

 Mulliken charges:
               1
     1  C   -0.309243
     2  C   -0.249800
     3  C   -0.290702
     4  C    0.044919
     5  O   -0.482554
     6  H    0.114357
     7  H    0.117857
     8  H    0.122523
     9  H    0.082005
    10  H    0.124989
    11  H    0.108546
    12  H    0.116503
    13  H    0.090738
    14  H    0.097418
    15  H    0.312444
 Sum of Mulliken charges =  -0.00000

 Dipole moment (field-independent basis, Debye):
    X=             -0.9742    Y=             -0.5297    Z=             -1.2835  Tot=              1.6962
  Exact polarizability:  48.398   0.702  47.667  -0.999  -0.206  44.629
 Approx polarizability:  47.418   0.994  46.493  -1.018  -0.188  49.034
   1 Symmetry operations used in ECPInt.
 ECPInt:  NShTT=    1275 NPrTT=    5145 LenC2=    1274 LenP2D=    4356.
 LDataN:  DoStor=T MaxTD1= 6 Len=  172
 Calling FoFJK, ICntrl=    100127 FMM=F ISym2X=0 I1Cent= 0 IOpClX= 0 NMat=1 NMatS=1 NMatT=0.
 Full mass-weighted force constant matrix:
 Low frequencies ---   -5.7402    0.0009    0.0011    0.0012   10.2653   16.9104
 Low frequencies ---  136.2445  230.5391  250.2903
 Diagonal vibrational polarizability:

                      1                      2                      3
                      A                      A                      A
 Frequencies --    136.2401               230.5342               250.2894
 Red. masses --      2.0693                 1.0842                 1.2520
 Frc consts  --      0.0226                 0.0339                 0.0462
 IR Inten    --      3.3422                 0.4850                 2.1584

                      4                      5                      6
                      A                      A                      A
 Frequencies --    274.8000               326.8689               359.9027
 Red. masses --      1.9242                 1.2192                 2.2302
 Frc consts  --      0.0856                 0.0767                 0.1702
 IR Inten    --      1.4782               128.3105                 0.5332

                      7                      8                      9
                      A                      A                      A
 Frequencies --    446.1667               511.0797               839.6218
 Red. masses --      1.7950                 3.3779                 2.5502
 Frc consts  --      0.2105                 0.5198                 1.0592
 IR Inten    --     15.8561                13.3291                 4.4744

                     10                     11                     12
                      A                      A                      A
 Frequencies --    921.9794               945.8671               970.7958
 Red. masses --      1.3480                 1.1807                 1.5186
 Frc consts  --      0.6751                 0.6224                 0.8432
 IR Inten    --      7.5905                 0.9805                 2.7997

                     13                     14                     15
                      A                      A                      A
 Frequencies --    990.2917              1118.7262              1148.3729
 Red. masses --      1.5828                 1.5195                 2.7035
 Frc consts  --      0.9145                 1.1204                 2.1006
 IR Inten    --      4.0087               101.2992                25.7176

                     16                     17                     18
                      A                      A                      A
 Frequencies --   1176.0290              1215.0909              1268.6215
 Red. masses --      2.1797                 1.7059                 1.5158
 Frc consts  --      1.7762                 1.4840                 1.4373
 IR Inten    --      5.2546                 0.2007                10.5223

                     19                     20                     21
                      A                      A                      A
 Frequencies --   1343.0809              1383.2183              1405.7501
 Red. masses --      1.2448                 1.2826                 1.2998
 Frc consts  --      1.3230                 1.4458                 1.5134
 IR Inten    --      1.9503                 1.6459                10.0161

                     22                     23                     24
                      A                      A                      A
 Frequencies --   1421.3038              1425.1746              1446.3470
 Red. masses --      1.3735                 1.3439                 1.3257
 Frc consts  --      1.6348                 1.6083                 1.6339
 IR Inten    --     23.3390                 3.9593                31.8498

                     25                     26                     27
                      A                      A                      A
 Frequencies --   1483.4652              1485.8507              1498.1829
 Red. masses --      1.0426                 1.0699                 1.0513
 Frc consts  --      1.3518                 1.3917                 1.3903
 IR Inten    --      0.1674                 4.8954                10.7586

                     28                     29                     30
                      A                      A                      A
 Frequencies --   1506.0145              1512.4640              2987.4881
 Red. masses --      1.0755                 1.0885                 1.0712
 Frc consts  --      1.4372                 1.4670                 5.6328
 IR Inten    --      9.0886                 9.6785                70.8694

                     31                     32                     33
                      A                      A                      A
 Frequencies --   3003.8031              3023.9859              3029.3315
 Red. masses --      1.0834                 1.0382                 1.0393
 Frc consts  --      5.7593                 5.5934                 5.6192
 IR Inten    --     31.2221                27.3080                19.3374

                     34                     35                     36
                      A                      A                      A
 Frequencies --   3092.7143              3112.8407              3116.4342
 Red. masses --      1.0984                 1.1044                 1.1034
 Frc consts  --      6.1898                 6.3048                 6.3138
 IR Inten    --     27.6154                15.1126                41.9700

                     37                     38                     39
                      A                      A                      A
 Frequencies --   3123.6204              3143.4948              3768.1369
 Red. masses --      1.1045                 1.1037                 1.0659
 Frc consts  --      6.3494                 6.4261                 8.9172
 IR Inten    --     25.5281                13.2229                23.6611

 Optimization completed.
    -- Stationary point found.

 1\1\GINC-C200\Freq\RwB97XD\def2SVPP\C4H10O1\PETERCHAO1\29-Mar-2024\0\\
 #T Geom=AllCheck Guess=TCheck SCRF=Check GenChk RwB97XD/def2SVPP Freq\
 \Monomer\\0,1\C,1.7565968726,0.8054172049,0.012476406\C,0.5037252677,-
 0.0028131773,-0.3256584763\C,0.6280600935,-1.4606350785,0.1154495172\C
 ,-0.7403618188,0.6566353943,0.2785859691\O,-1.9383482527,-0.0137793293
 ,-0.0226116547\H,1.9248377773,0.8297550484,1.1049943422\H,1.6759346212
 ,1.8490782643,-0.3401538693\H,2.65286536,0.3607097747,-0.4532253131\H,
 0.3763801741,0.0140656612,-1.4278489665\H,-0.2954454878,-2.0186293669,

 Normal termination of Gaussian 16 at Fri Mar 29 15:37:48 2024.
