 Gaussian 16, Revision B.01,
 Gaussian 16:  ES64L-G16RevB.01 20-Dec-2017

 ----------------------------------------------------------------------
 #T wB97XD/def2svpp opt=tight freq int(grid=ultrafine) scf=(verytight,q
 c) Volume=tight
 ----------------------------------------------------------------------
 -----
 Dimer
 -----
 Symbolic Z-matrix:
 Charge =  0 Multiplicity = 1

 SCF Done:  E(RwB97XD) =  -725.351873966     a.u. after    8 cycles
 SCF Done:  E(RwB97XD) =  -725.354568808     a.u. after    5 cycles
 SCF Done:  E(RwB97XD) =  -725.354646169     a.u. after    4 cycles
 SCF Done:  E(RwB97XD) =  -725.354671211     a.u. after    3 cycles
 SCF Done:  E(RwB97XD) =  -725.354680289     a.u. after    3 cycles
 SCF Done:  E(RwB97XD) =  -725.354691750     a.u. after    3 cycles
 SCF Done:  E(RwB97XD) =  -725.354697541     a.u. after    3 cycles
 SCF Done:  E(RwB97XD) =  -725.354698345     a.u. after    2 cycles
 SCF Done:  E(RwB97XD) =  -725.354698658     a.u. after    2 cycles
 SCF Done:  E(RwB97XD) =  -725.354698708     a.u. after    2 cycles
 SCF Done:  E(RwB97XD) =  -725.354698724     a.u. after    2 cycles
 SCF Done:  E(RwB97XD) =  -725.354698726     a.u. after    2 cycles
 SCF Done:  E(RwB97XD) =  -725.354698727     a.u. after    2 cycles
 Optimization completed.
    -- Stationary point found.
 Normal termination of Gaussian 16 at Mon Apr  1 15:25:32 2024.

 ---------------------------------------------------------------------
 #T Geom=AllCheck Guess=TCheck SCRF=Check GenChk RwB97XD/def2SVPP Freq
 ---------------------------------------------------------------------
 Structure from the checkpoint file:  "dimer.chk"
 -----
 Dimer
 -----
 Charge =  0 Multiplicity = 1

                         Standard orientation:
 ---------------------------------------------------------------------
 Center     Atomic      Atomic             Coordinates (Angstroms)
 Number     Number       Type             X           Y           Z
 ---------------------------------------------------------------------
      1          6           0       -3.938942   -0.661421    1.260871
      2          6           0       -3.436263    0.055774    0.000028
      3          6           0       -3.938994   -0.661255   -1.260894
      4          7           0       -3.942321    1.415634    0.000125
      5          6           0       -1.900362    0.019978   -0.000028
      6          8           0       -1.382508   -1.179807   -0.000014
      7          8           0       -1.230903    1.045112   -0.000085
      8          1           0       -3.572436   -0.157244    2.173099
      9          1           0       -3.601008   -1.709145    1.285722
     10          1           0       -5.040634   -0.630899    1.272164
     11          1           0       -5.040687   -0.630745   -1.272128
     12          1           0       -3.601047   -1.708971   -1.285908
     13          1           0       -3.572540   -0.156941   -2.173066
     14          1           0       -3.589806    1.920586   -0.813756
     15          1           0       -3.589865    1.920450    0.814117
     16          1           0       -0.372359   -1.140758   -0.000081
     17          6           0        3.938829    0.661078    1.261110
     18          6           0        3.436263   -0.055775    0.000021
     19          6           0        3.939106    0.661599   -1.260653
     20          7           0        3.942323   -1.415633   -0.000200
     21          6           0        1.900362   -0.019979   -0.000101
     22          8           0        1.382508    1.179806   -0.000042
     23          8           0        1.230903   -1.045112   -0.000183
     24          1           0        3.600872    1.708788    1.286231
     25          1           0        5.040521    0.630573    1.272482
     26          1           0        3.572263    0.156629    2.173163
     27          1           0        5.040799    0.631073   -1.271811
     28          1           0        3.601180    1.709328   -1.285396
     29          1           0        3.572712    0.157557   -2.173000
     30          1           0        3.590003   -1.920326   -0.814326
     31          1           0        3.589676   -1.920709    0.813547
     32          1           0        0.372357    1.140757   -0.000070
 ---------------------------------------------------------------------

 SCF Done:  E(RwB97XD) =  -725.354698727     a.u. after    1 cycles

 The electronic state is 1-A.
 Alpha  occ. eigenvalues --  -19.29653 -19.29652 -19.26660 -19.26658 -14.41815
 Alpha  occ. eigenvalues --  -14.41814 -10.43913 -10.43913 -10.34874 -10.34873
 Alpha  occ. eigenvalues --  -10.29132 -10.29132 -10.29130 -10.29130  -1.21778
 Alpha  occ. eigenvalues --   -1.20475  -1.12322  -1.10860  -0.99486  -0.99382
 Alpha  occ. eigenvalues --   -0.86170  -0.85960  -0.78847  -0.78845  -0.76595
 Alpha  occ. eigenvalues --   -0.73987  -0.67965  -0.66400  -0.61344  -0.60446
 Alpha  occ. eigenvalues --   -0.59904  -0.58482  -0.58358  -0.57542  -0.55257
 Alpha  occ. eigenvalues --   -0.54656  -0.53706  -0.53456  -0.53111  -0.48937
 Alpha  occ. eigenvalues --   -0.47558  -0.47433  -0.47017  -0.47001  -0.46660
 Alpha  occ. eigenvalues --   -0.46597  -0.44921  -0.44832  -0.43070  -0.43017
 Alpha  occ. eigenvalues --   -0.42211  -0.41162  -0.38430  -0.37368  -0.33111
 Alpha  occ. eigenvalues --   -0.32734
 Alpha virt. eigenvalues --    0.07346   0.07834   0.12955   0.13474   0.17831
 Alpha virt. eigenvalues --    0.18184   0.18603   0.18612   0.19779   0.19782
 Alpha virt. eigenvalues --    0.20445   0.20588   0.21178   0.21179   0.21839

 Mulliken charges:
               1
     1  C   -0.268184
     2  C   -0.167884
     3  C   -0.268180
     4  N   -0.459154
     5  C    0.269335
     6  O   -0.364258
     7  O   -0.321649
     8  H    0.115151
     9  H    0.138295
    10  H    0.137967
    11  H    0.137968
    12  H    0.138291
    13  H    0.115153
    14  H    0.222856
    15  H    0.222851
    16  H    0.351443
    17  C   -0.268179
    18  C   -0.167884
    19  C   -0.268185
    20  N   -0.459154
    21  C    0.269335
    22  O   -0.364258
    23  O   -0.321649
    24  H    0.138291
    25  H    0.137968
    26  H    0.115153
    27  H    0.137967
    28  H    0.138296
    29  H    0.115151
    30  H    0.222850
    31  H    0.222857
    32  H    0.351443
 Sum of Mulliken charges =  -0.00000

 Dipole moment (field-independent basis, Debye):
    X=             -0.0000    Y=             -0.0000    Z=             -0.0000  Tot=              0.0000
  Exact polarizability: 126.457   4.636 104.956  -0.000   0.000  95.594
 Approx polarizability: 114.330   4.383 126.555  -0.001   0.001 101.227
   1 Symmetry operations used in ECPInt.
 ECPInt:  NShTT=    7260 NPrTT=   29156 LenC2=    6688 LenP2D=   18825.
 LDataN:  DoStor=T MaxTD1= 6 Len=  172
 Calling FoFJK, ICntrl=    100127 FMM=F ISym2X=0 I1Cent= 0 IOpClX= 0 NMat=1 NMatS=1 NMatT=0.
 Full mass-weighted force constant matrix:
 Low frequencies ---   -1.4988    0.0002    0.0008    0.0009    1.5668    7.6147
 Low frequencies ---   19.0933   32.2901   36.2709
 Diagonal vibrational polarizability:

                      1                      2                      3
                      A                      A                      A
 Frequencies --     19.0933                32.2901                36.2612
 Red. masses --      2.8144                 4.2690                 5.0001
 Frc consts  --      0.0006                 0.0026                 0.0039
 IR Inten    --      0.0806                 0.0238                 0.0000

                      4                      5                      6
                      A                      A                      A
 Frequencies --     79.0860                91.2486               102.1372
 Red. masses --     12.9498                 5.7383                 4.2690
 Frc consts  --      0.0477                 0.0282                 0.0262
 IR Inten    --      2.1892                 0.0000                 5.7919

                      7                      8                      9
                      A                      A                      A
 Frequencies --    134.6876               143.9201               215.7103
 Red. masses --      5.6103                 5.2030                 1.1831
 Frc consts  --      0.0600                 0.0635                 0.0324
 IR Inten    --      0.0000                 0.0000                 7.1440

                     10                     11                     12
                      A                      A                      A
 Frequencies --    219.6249               242.7281               252.1163
 Red. masses --      1.0997                 1.6906                 1.8210
 Frc consts  --      0.0313                 0.0587                 0.0682
 IR Inten    --      0.0000                48.6950                 0.0000

                     13                     14                     15
                      A                      A                      A
 Frequencies --    277.2091               278.0088               296.4965
 Red. masses --      1.1236                 1.0478                 3.1237
 Frc consts  --      0.0509                 0.0477                 0.1618
 IR Inten    --      0.0000                 0.9198                 0.0000

                     16                     17                     18
                      A                      A                      A
 Frequencies --    298.3786               300.8793               307.4497
 Red. masses --      1.2519                 1.3681                 2.8848
 Frc consts  --      0.0657                 0.0730                 0.1607
 IR Inten    --     39.7085                 0.0000                17.8346

                     19                     20                     21
                      A                      A                      A
 Frequencies --    362.3828               384.2327               394.2635
 Red. masses --      2.7193                 3.4560                 3.0307
 Frc consts  --      0.2104                 0.3006                 0.2776
 IR Inten    --      0.0000                35.6900                56.1507

                     22                     23                     24
                      A                      A                      A
 Frequencies --    422.2743               430.5331               432.4085
 Red. masses --      3.7081                 2.6690                 2.7014
 Frc consts  --      0.3896                 0.2915                 0.2976
 IR Inten    --      0.0000                14.8182                 0.0000

                     25                     26                     27
                      A                      A                      A
 Frequencies --    541.7817               577.3926               625.3339
 Red. masses --      4.1450                 4.7865                 3.7692
 Frc consts  --      0.7168                 0.9402                 0.8684
 IR Inten    --      0.0000                49.6702                20.3181

                     28                     29                     30
                      A                      A                      A
 Frequencies --    628.0819               793.9819               794.8632
 Red. masses --      3.8420                 5.0700                 4.4089
 Frc consts  --      0.8930                 1.8831                 1.6412
 IR Inten    --      0.0000                 0.0551                 0.0000

                     31                     32                     33
                      A                      A                      A
 Frequencies --    799.8233               815.2653               905.4015
 Red. masses --      5.9674                 4.7031                 1.8146
 Frc consts  --      2.2492                 1.8418                 0.8764
 IR Inten    --      0.0000                13.0228                 0.0000

                     34                     35                     36
                      A                      A                      A
 Frequencies --    906.1004               920.2793               920.4609
 Red. masses --      1.7026                 1.9793                 1.7729
 Frc consts  --      0.8236                 0.9877                 0.8850
 IR Inten    --    333.9634                96.6189                 0.0001

                     37                     38                     39
                      A                      A                      A
 Frequencies --    968.7121               968.7219              1017.2684
 Red. masses --      1.4478                 1.4474                 1.1198
 Frc consts  --      0.8005                 0.8003                 0.6827
 IR Inten    --      0.0017                 3.1396                 0.0000

                     40                     41                     42
                      A                      A                      A
 Frequencies --   1023.1135              1027.3817              1044.1433
 Red. masses --      1.2717                 1.2059                 1.5172
 Frc consts  --      0.7843                 0.7500                 0.9746
 IR Inten    --      0.0023                 0.0000                25.4975

                     43                     44                     45
                      A                      A                      A
 Frequencies --   1044.4531              1061.3864              1101.5249
 Red. masses --      1.5117                 1.1282                 1.6951
 Frc consts  --      0.9716                 0.7488                 1.2118
 IR Inten    --      0.0000               194.7856                 0.0000

                     46                     47                     48
                      A                      A                      A
 Frequencies --   1102.0623              1228.3687              1233.5938
 Red. masses --      1.6696                 2.6994                 2.7143
 Frc consts  --      1.1948                 2.3998                 2.4336
 IR Inten    --      5.1412               213.4797                 0.0000

                     49                     50                     51
                      A                      A                      A
 Frequencies --   1305.8572              1306.3616              1360.1929
 Red. masses --      3.4406                 3.3816                 1.5719
 Frc consts  --      3.4568                 3.4002                 1.7135
 IR Inten    --      0.0000                96.6741                 0.0000

                     52                     53                     54
                      A                      A                      A
 Frequencies --   1360.5685              1384.2507              1385.5826
 Red. masses --      1.5702                 2.4463                 1.9316
 Frc consts  --      1.7126                 2.7618                 2.1849
 IR Inten    --      0.1300                 0.0000               191.6308

                     55                     56                     57
                      A                      A                      A
 Frequencies --   1406.4428              1406.4925              1420.0279
 Red. masses --      1.4501                 1.4514                 1.2558
 Frc consts  --      1.6900                 1.6917                 1.4920
 IR Inten    --      0.0002                18.6877                17.9697

                     58                     59                     60
                      A                      A                      A
 Frequencies --   1425.1046              1479.1453              1479.2023
 Red. masses --      1.3687                 1.0563                 1.0569
 Frc consts  --      1.6377                 1.3617                 1.3625
 IR Inten    --      0.0000                 0.0000                 6.3777

                     61                     62                     63
                      A                      A                      A
 Frequencies --   1481.1157              1481.2461              1486.0123
 Red. masses --      1.0430                 1.0427                 1.3274
 Frc consts  --      1.3481                 1.3479                 1.7270
 IR Inten    --      0.0000                 1.7030                13.8587

                     64                     65                     66
                      A                      A                      A
 Frequencies --   1493.3744              1499.1853              1504.1070
 Red. masses --      1.0833                 1.1089                 1.0613
 Frc consts  --      1.4235                 1.4685                 1.4146
 IR Inten    --      0.0000                30.2393                 0.0000

                     67                     68                     69
                      A                      A                      A
 Frequencies --   1516.0324              1538.1984              1680.4610
 Red. masses --      1.5089                 1.7741                 1.1073
 Frc consts  --      2.0433                 2.4732                 1.8423
 IR Inten    --    147.4532                 0.0000                 0.0000

                     70                     71                     72
                      A                      A                      A
 Frequencies --   1680.7942              1769.1917              1837.9773
 Red. masses --      1.1048                 6.0285                10.1569
 Frc consts  --      1.8390                11.1176                20.2158
 IR Inten    --     43.8720                 0.0000               788.0009

                     73                     74                     75
                      A                      A                      A
 Frequencies --   2945.5306              3039.3310              3039.3979
 Red. masses --      1.0871                 1.0385                 1.0385
 Frc consts  --      5.5569                 5.6520                 5.6522
 IR Inten    --      0.0000                 0.0000                59.8072

                     76                     77                     78
                      A                      A                      A
 Frequencies --   3040.9165              3041.4625              3078.8751
 Red. masses --      1.0397                 1.0395                 1.0663
 Frc consts  --      5.6648                 5.6654                 5.9552
 IR Inten    --     96.8230                 0.0000              4525.6067

                     79                     80                     81
                      A                      A                      A
 Frequencies --   3131.8704              3131.9248              3133.4328
 Red. masses --      1.1028                 1.1028                 1.1019
 Frc consts  --      6.3732                 6.3735                 6.3741
 IR Inten    --      0.0000                17.4077                30.4172

                     82                     83                     84
                      A                      A                      A
 Frequencies --   3133.4576              3162.4324              3162.4335
 Red. masses --      1.1019                 1.1066                 1.1066
 Frc consts  --      6.3745                 6.5208                 6.5208
 IR Inten    --      0.0000                 0.0069                 0.2467

                     85                     86                     87
                      A                      A                      A
 Frequencies --   3165.2805              3165.3621              3492.8132
 Red. masses --      1.1057                 1.1056                 1.0519
 Frc consts  --      6.5270                 6.5266                 7.5613
 IR Inten    --      0.0001                13.7168                 2.7082

                     88                     89                     90
                      A                      A                      A
 Frequencies --   3492.8202              3571.1041              3571.1051
 Red. masses --      1.0519                 1.0919                 1.0919
 Frc consts  --      7.5612                 8.2045                 8.2045
 IR Inten    --      0.0112                 2.6330                 2.7851

                           ! Non-Optimized Parameters !
 Normal termination of Gaussian 16 at Mon Apr  1 15:31:42 2024.
