 Gaussian 16, Revision B.01,
 Gaussian 16:  ES64L-G16RevB.01 20-Dec-2017

 ----------------------------------------------------------------------
 #T wB97XD/def2svpp opt=tight freq int(grid=ultrafine) scf=(verytight,q
 c)
 ----------------------------------------------------------------------
 -----
 dimer
 -----
 Symbolic Z-matrix:
 Charge =  0 Multiplicity = 1

 SCF Done:  E(RwB97XD) =  -695.638604943     a.u. after    7 cycles
 SCF Done:  E(RwB97XD) =  -695.641922466     a.u. after    7 cycles
 SCF Done:  E(RwB97XD) =  -695.642193967     a.u. after    6 cycles
 SCF Done:  E(RwB97XD) =  -695.642573556     a.u. after    7 cycles
 SCF Done:  E(RwB97XD) =  -695.642736191     a.u. after    7 cycles
 SCF Done:  E(RwB97XD) =  -695.642817564     a.u. after    7 cycles
 SCF Done:  E(RwB97XD) =  -695.643003353     a.u. after    5 cycles
 SCF Done:  E(RwB97XD) =  -695.643046598     a.u. after    5 cycles
 SCF Done:  E(RwB97XD) =  -695.643054227     a.u. after    3 cycles
 SCF Done:  E(RwB97XD) =  -695.643056301     a.u. after    2 cycles
 SCF Done:  E(RwB97XD) =  -695.643059532     a.u. after    2 cycles
 SCF Done:  E(RwB97XD) =  -695.643059609     a.u. after    2 cycles
 SCF Done:  E(RwB97XD) =  -695.643059688     a.u. after    2 cycles
 SCF Done:  E(RwB97XD) =  -695.643059749     a.u. after    2 cycles
 SCF Done:  E(RwB97XD) =  -695.643059767     a.u. after    2 cycles
 SCF Done:  E(RwB97XD) =  -695.643059774     a.u. after    2 cycles
 SCF Done:  E(RwB97XD) =  -695.643059775     a.u. after    2 cycles
 SCF Done:  E(RwB97XD) =  -695.643059775     a.u. after    2 cycles
 SCF Done:  E(RwB97XD) =  -695.643059775     a.u. after    2 cycles
 Optimization completed.
    -- Stationary point found.
 Normal termination of Gaussian 16 at Tue Aug  9 17:01:05 2022.

 ---------------------------------------------------------------------
 #T Geom=AllCheck Guess=TCheck SCRF=Check GenChk RwB97XD/def2SVPP Freq
 ---------------------------------------------------------------------
 Structure from the checkpoint file:  "/scratch/user/peterchao1/peterchao1/6113309_1660079070000000130990947/Gau-172758.chk"
 -----
 dimer
 -----
 Charge =  0 Multiplicity = 1

                         Standard orientation:
 ---------------------------------------------------------------------
 Center     Atomic      Atomic             Coordinates (Angstroms)
 Number     Number       Type             X           Y           Z
 ---------------------------------------------------------------------
      1          6           0       -4.301109    0.029284    0.214896
      2          6           0       -2.770329   -0.006656    0.127128
      3          6           0       -2.188589   -0.132409    1.540098
      4          6           0       -2.358809   -1.222056   -0.730809
      5          8           0       -0.972081   -1.292381   -0.993019
      6          6           0       -2.311508    1.303747   -0.556196
      7          8           0       -0.954605    1.338208   -0.936897
      8          1           0       -4.690074   -0.892047    0.683264
      9          1           0       -4.765995    0.124502   -0.782868
     10          1           0       -4.639401    0.882982    0.828774
     11          1           0       -2.650980   -0.982251    2.072706
     12          1           0       -2.378993    0.781167    2.131072
     13          1           0       -1.105948   -0.319672    1.532091
     14          1           0       -2.914832   -1.192119   -1.690686
     15          1           0       -2.642322   -2.156150   -0.215959
     16          1           0       -0.724584   -0.385025   -1.275930
     17          1           0       -2.556284    2.161243    0.101799
     18          1           0       -2.886540    1.435533   -1.490069
     19          1           0       -0.342345    1.500878   -0.180424
     20          6           0        2.188589    0.132419   -1.540099
     21          6           0        2.770329    0.006658   -0.127130
     22          6           0        4.301109   -0.029279   -0.214898
     23          6           0        2.358807    1.222052    0.730814
     24          8           0        0.972079    1.292372    0.993025
     25          6           0        2.311509   -1.303748    0.556189
     26          8           0        0.954609   -1.338210    0.936899
     27          1           0        2.378992   -0.781155   -2.131077
     28          1           0        2.650979    0.982263   -2.072703
     29          1           0        1.105947    0.319683   -1.532091
     30          1           0        4.690072    0.892055   -0.683261
     31          1           0        4.639401   -0.882973   -0.828782
     32          1           0        4.765995   -0.124503    0.782865
     33          1           0        2.642316    2.156150    0.215968
     34          1           0        2.914831    1.192112    1.690689
     35          1           0        0.724584    0.385014    1.275930
     36          1           0        2.886547   -1.435538    1.490059
     37          1           0        2.556282   -2.161241   -0.101811
     38          1           0        0.342343   -1.500883    0.180431
 ---------------------------------------------------------------------

 SCF Done:  E(RwB97XD) =  -695.643059775     a.u. after    1 cycles

 The electronic state is 1-A.
 Alpha  occ. eigenvalues --  -19.25232 -19.25231 -19.25129 -19.25127 -10.33995
 Alpha  occ. eigenvalues --  -10.33995 -10.33839 -10.33838 -10.30981 -10.30981
 Alpha  occ. eigenvalues --  -10.29032 -10.29032 -10.28184 -10.28183  -1.13249
 Alpha  occ. eigenvalues --   -1.11973  -1.10621  -1.09350  -0.91280  -0.91280
 Alpha  occ. eigenvalues --   -0.78395  -0.78024  -0.76991  -0.76967  -0.76194
 Alpha  occ. eigenvalues --   -0.76149  -0.65788  -0.65622  -0.62357  -0.61962
 Alpha  occ. eigenvalues --   -0.58157  -0.57778  -0.55925  -0.55368  -0.54022
 Alpha  occ. eigenvalues --   -0.53075  -0.53011  -0.52610  -0.50408  -0.49732
 Alpha  occ. eigenvalues --   -0.49340  -0.48753  -0.46631  -0.46539  -0.46086
 Alpha  occ. eigenvalues --   -0.45809  -0.45557  -0.45522  -0.43842  -0.43291
 Alpha  occ. eigenvalues --   -0.41644  -0.41123  -0.40745  -0.38734  -0.36486
 Alpha  occ. eigenvalues --   -0.35662  -0.34677  -0.34278
 Alpha virt. eigenvalues --    0.12691   0.12702   0.15351   0.16748   0.17001
 Alpha virt. eigenvalues --    0.17179   0.17773   0.18141   0.19573   0.20014
 Alpha virt. eigenvalues --    0.20716   0.20723   0.21481   0.21948   0.22397

 Mulliken charges:
               1
     1  C   -0.279467
     2  C   -0.331173
     3  C   -0.303127
     4  C    0.085219
     5  O   -0.543245
     6  C    0.066523
     7  O   -0.546050
     8  H    0.121827
     9  H    0.118584
    10  H    0.121903
    11  H    0.116376
    12  H    0.118659
    13  H    0.133247
    14  H    0.092834
    15  H    0.105092
    16  H    0.371046
    17  H    0.102227
    18  H    0.100156
    19  H    0.349368
    20  C   -0.303128
    21  C   -0.331173
    22  C   -0.279467
    23  C    0.085219
    24  O   -0.543246
    25  C    0.066524
    26  O   -0.546050
    27  H    0.118658
    28  H    0.116376
    29  H    0.133248
    30  H    0.121827
    31  H    0.121903
    32  H    0.118583
    33  H    0.105092
    34  H    0.092834
    35  H    0.371047
    36  H    0.100156
    37  H    0.102227
    38  H    0.349368
 Sum of Mulliken charges =   0.00000

 Dipole moment (field-independent basis, Debye):
    X=             -0.0000    Y=             -0.0000    Z=             -0.0000  Tot=              0.0000
  Exact polarizability: 146.870  -0.294 112.569   1.298   0.175 111.521
 Approx polarizability: 133.980   0.107 124.415   1.314  -0.210 123.005
   1 Symmetry operations used in ECPInt.
 ECPInt:  NShTT=    8778 NPrTT=   35234 LenC2=    8517 LenP2D=   24613.
 LDataN:  DoStor=T MaxTD1= 6 Len=  172
 Calling FoFJK, ICntrl=    100127 FMM=F ISym2X=0 I1Cent= 0 IOpClX= 0 NMat=1 NMatS=1 NMatT=0.
 Full mass-weighted force constant matrix:
 Low frequencies ---   -7.0056   -3.0164    0.0006    0.0009    0.0013    5.6612
 Low frequencies ---   52.3992   69.3456   84.2326
 Diagonal vibrational polarizability:

                      1                      2                      3
                      A                      A                      A
 Frequencies --     52.3992                69.3456                84.2314
 Red. masses --      2.8956                 3.8634                 5.1709
 Frc consts  --      0.0047                 0.0109                 0.0216
 IR Inten    --      0.8038                 3.0298                 0.0000

                      4                      5                      6
                      A                      A                      A
 Frequencies --     94.5477               103.2756               131.0725
 Red. masses --      2.6867                 3.3696                 3.5964
 Frc consts  --      0.0142                 0.0212                 0.0364
 IR Inten    --     11.3180                 0.0000                 0.0000

                      7                      8                      9
                      A                      A                      A
 Frequencies --    152.0478               188.0828               199.1621
 Red. masses --      2.7311                 1.5194                 1.2247
 Frc consts  --      0.0372                 0.0317                 0.0286
 IR Inten    --      0.0000                 0.6137                 0.0000

                     10                     11                     12
                      A                      A                      A
 Frequencies --    204.0164               248.3202               251.7691
 Red. masses --      1.6231                 1.1138                 1.1249
 Frc consts  --      0.0398                 0.0405                 0.0420
 IR Inten    --      0.1824                 0.0000                 0.7386

                     13                     14                     15
                      A                      A                      A
 Frequencies --    274.9084               278.3246               283.5939
 Red. masses --      3.4515                 2.5755                 2.1120
 Frc consts  --      0.1537                 0.1175                 0.1001
 IR Inten    --      0.0000                 3.7672                 0.0000

                     16                     17                     18
                      A                      A                      A
 Frequencies --    289.7791               312.9480               326.2691
 Red. masses --      3.8056                 3.9459                 6.3947
 Frc consts  --      0.1883                 0.2277                 0.4011
 IR Inten    --     17.3705                 0.0000                29.4221

                     19                     20                     21
                      A                      A                      A
 Frequencies --    353.3127               355.4386               388.6523
 Red. masses --      2.0377                 2.3426                 3.0807
 Frc consts  --      0.1499                 0.1744                 0.2742
 IR Inten    --      6.4218                 0.0000                 1.5084

                     22                     23                     24
                      A                      A                      A
 Frequencies --    388.9527               420.0279               420.9126
 Red. masses --      3.2427                 2.1307                 2.1813
 Frc consts  --      0.2890                 0.2215                 0.2277
 IR Inten    --      0.0000                 0.7990                 0.0000

                     25                     26                     27
                      A                      A                      A
 Frequencies --    459.9101               467.6884               577.3936
 Red. masses --      2.6713                 2.7490                 2.4689
 Frc consts  --      0.3329                 0.3543                 0.4850
 IR Inten    --      0.0000                 7.5386                 0.0000

                     28                     29                     30
                      A                      A                      A
 Frequencies --    581.0930               619.9022               706.5815
 Red. masses --      3.3823                 1.3149                 1.2267
 Frc consts  --      0.6729                 0.2977                 0.3608
 IR Inten    --      9.5357                 0.0000               242.6071

                     31                     32                     33
                      A                      A                      A
 Frequencies --    776.8784               787.2384               834.6465
 Red. masses --      2.8913                 2.7331                 1.0597
 Frc consts  --      1.0281                 0.9980                 0.4349
 IR Inten    --      0.0000                55.8261               319.2363

                     34                     35                     36
                      A                      A                      A
 Frequencies --    920.4056               922.3134               927.6427
 Red. masses --      1.8768                 1.8544                 1.7832
 Frc consts  --      0.9368                 0.9294                 0.9041
 IR Inten    --      0.0000                20.6092                 0.0000

                     37                     38                     39
                      A                      A                      A
 Frequencies --    929.0568               935.5870               956.9777
 Red. masses --      1.8381                 1.3624                 1.3491
 Frc consts  --      0.9348                 0.7026                 0.7280
 IR Inten    --     11.9061                 0.0000                16.6653

                     40                     41                     42
                      A                      A                      A
 Frequencies --    957.7168               964.1069               985.7648
 Red. masses --      1.3946                 1.4164                 1.2118
 Frc consts  --      0.7536                 0.7757                 0.6938
 IR Inten    --      0.0000                 1.8716                 0.0000

                     43                     44                     45
                      A                      A                      A
 Frequencies --   1028.4949              1038.0127              1049.0285
 Red. masses --      1.5437                 1.5696                 1.4809
 Frc consts  --      0.9621                 0.9964                 0.9602
 IR Inten    --     14.7369                 0.0000                 0.0000

                     46                     47                     48
                      A                      A                      A
 Frequencies --   1049.3405              1120.2174              1127.4218
 Red. masses --      1.4530                 5.4197                 5.4920
 Frc consts  --      0.9427                 4.0071                 4.1130
 IR Inten    --      2.4589                 0.0000                88.0743

                     49                     50                     51
                      A                      A                      A
 Frequencies --   1140.4003              1153.2358              1219.4150
 Red. masses --      4.5294                 3.7324                 1.4273
 Frc consts  --      3.4706                 2.9246                 1.2504
 IR Inten    --    350.1731                 0.0000                15.9202

                     52                     53                     54
                      A                      A                      A
 Frequencies --   1220.6246              1225.8144              1226.7045
 Red. masses --      2.2982                 2.6900                 1.4617
 Frc consts  --      2.0175                 2.3815                 1.2960
 IR Inten    --      0.0000                35.9654                 0.0000

                     55                     56                     57
                      A                      A                      A
 Frequencies --   1248.5483              1257.2691              1314.6184
 Red. masses --      1.4207                 1.3923                 1.9098
 Frc consts  --      1.3049                 1.2967                 1.9446
 IR Inten    --      0.0000                68.6564                 0.0000

                     58                     59                     60
                      A                      A                      A
 Frequencies --   1319.2471              1345.3676              1351.6224
 Red. masses --      1.8160                 1.6283                 1.5640
 Frc consts  --      1.8622                 1.7365                 1.6834
 IR Inten    --     15.0602                27.1330                 0.0000

                     61                     62                     63
                      A                      A                      A
 Frequencies --   1392.4993              1394.1170              1408.0794
 Red. masses --      1.2329                 1.2362                 1.3341
 Frc consts  --      1.4086                 1.4156                 1.5585
 IR Inten    --      4.7749                 0.0000                13.2534

                     64                     65                     66
                      A                      A                      A
 Frequencies --   1409.4473              1418.4160              1418.8376
 Red. masses --      1.3170                 1.3198                 1.3133
 Frc consts  --      1.5414                 1.5645                 1.5577
 IR Inten    --      0.0000                 1.5248                 0.0000

                     67                     68                     69
                      A                      A                      A
 Frequencies --   1432.8488              1439.9999              1453.4843
 Red. masses --      1.1878                 1.1745                 1.2762
 Frc consts  --      1.4368                 1.4350                 1.5885
 IR Inten    --      0.0000               119.4471                 5.2078

                     70                     71                     72
                      A                      A                      A
 Frequencies --   1454.1726              1480.9495              1481.4493
 Red. masses --      1.2488                 1.0832                 1.0725
 Frc consts  --      1.5559                 1.3998                 1.3869
 IR Inten    --      0.0000                 0.0000                10.1032

                     73                     74                     75
                      A                      A                      A
 Frequencies --   1483.2136              1484.9570              1493.3557
 Red. masses --      1.0486                 1.0592                 1.0775
 Frc consts  --      1.3591                 1.3761                 1.4157
 IR Inten    --     31.2935                 0.0000                 0.6097

                     76                     77                     78
                      A                      A                      A
 Frequencies --   1494.5015              1498.6602              1500.1769
 Red. masses --      1.0814                 1.0685                 1.0709
 Frc consts  --      1.4230                 1.4139                 1.4199
 IR Inten    --      0.0000                12.6452                 0.0000

                     79                     80                     81
                      A                      A                      A
 Frequencies --   1508.3525              1509.9240              1511.3849
 Red. masses --      1.0748                 1.0634                 1.0840
 Frc consts  --      1.4408                 1.4285                 1.4589
 IR Inten    --      0.0000                77.4315                 6.7533

                     82                     83                     84
                      A                      A                      A
 Frequencies --   1513.1508              1554.8433              1568.5976
 Red. masses --      1.0906                 1.1225                 1.1390
 Frc consts  --      1.4713                 1.5988                 1.6512
 IR Inten    --      0.0000                 0.0000               373.5486

                     85                     86                     87
                      A                      A                      A
 Frequencies --   3000.5433              3000.8001              3015.0902
 Red. masses --      1.0683                 1.0682                 1.0632
 Frc consts  --      5.6670                 5.6674                 5.6945
 IR Inten    --    152.1388                 0.0000               117.1816

                     88                     89                     90
                      A                      A                      A
 Frequencies --   3015.8302              3025.5642              3025.8699
 Red. masses --      1.0629                 1.0386                 1.0393
 Frc consts  --      5.6956                 5.6013                 5.6063
 IR Inten    --      0.0000                83.1958                 0.0000

                     91                     92                     93
                      A                      A                      A
 Frequencies --   3040.6130              3040.9428              3087.4104
 Red. masses --      1.0433                 1.0435                 1.1055
 Frc consts  --      5.6830                 5.6855                 6.2086
 IR Inten    --     45.4690                 0.0000                 0.0000

                     94                     95                     96
                      A                      A                      A
 Frequencies --   3087.5107              3096.2154              3096.3097
 Red. masses --      1.1055                 1.1005                 1.1006
 Frc consts  --      6.2092                 6.2158                 6.2168
 IR Inten    --     62.3365                 0.0000                56.5989

                     97                     98                     99
                      A                      A                      A
 Frequencies --   3117.0996              3117.1344              3117.4312
 Red. masses --      1.1050                 1.1050                 1.1046
 Frc consts  --      6.3260                 6.3261                 6.3247
 IR Inten    --      0.0000                 6.3232                 0.0000

                    100                    101                    102
                      A                      A                      A
 Frequencies --   3117.5322              3120.9400              3121.0953
 Red. masses --      1.1046                 1.1041                 1.1040
 Frc consts  --      6.3250                 6.3363                 6.3363
 IR Inten    --     52.1013                 0.0000                68.7538

                    103                    104                    105
                      A                      A                      A
 Frequencies --   3189.1726              3189.3163              3389.4091
 Red. masses --      1.0966                 1.0966                 1.0709
 Frc consts  --      6.5713                 6.5717                 7.2484
 IR Inten    --      0.0001                 8.7588                 0.0000

                    106                    107                    108
                      A                      A                      A
 Frequencies --   3440.8726              3506.2038              3515.0958
 Red. masses --      1.0693                 1.0653                 1.0645
 Frc consts  --      7.4588                 7.7161                 7.7494
 IR Inten    --   1458.0487               604.8472                 0.0000

                           ! Non-Optimized Parameters !
 Normal termination of Gaussian 16 at Tue Aug  9 17:10:18 2022.
