 Gaussian 16, Revision B.01,
 Gaussian 16:  ES64L-G16RevB.01 20-Dec-2017

 ----------------------------------------------------------------------
 #T wB97XD/def2svpp opt=tight freq int(grid=ultrafine) scf=(verytight,q
 c)
 ----------------------------------------------------------------------
 -----
 dimer
 -----
 Symbolic Z-matrix:
 Charge =  0 Multiplicity = 1

 SCF Done:  E(RwB97XD) =  -1025.66021669     a.u. after    9 cycles
 SCF Done:  E(RwB97XD) =  -1025.66324225     a.u. after   15 cycles
 SCF Done:  E(RwB97XD) =  -1025.66452318     a.u. after   13 cycles
 SCF Done:  E(RwB97XD) =  -1025.66552552     a.u. after   11 cycles
 SCF Done:  E(RwB97XD) =  -1025.66567186     a.u. after    9 cycles
 SCF Done:  E(RwB97XD) =  -1025.66580540     a.u. after   11 cycles
 SCF Done:  E(RwB97XD) =  -1025.66598962     a.u. after    7 cycles
 SCF Done:  E(RwB97XD) =  -1025.66606825     a.u. after    9 cycles
 SCF Done:  E(RwB97XD) =  -1025.66618830     a.u. after    8 cycles
 SCF Done:  E(RwB97XD) =  -1025.66626811     a.u. after    8 cycles
 SCF Done:  E(RwB97XD) =  -1025.66731822     a.u. after    2 cycles
 SCF Done:  E(RwB97XD) =  -1025.66731822     a.u. after    2 cycles
 SCF Done:  E(RwB97XD) =  -1025.66731822     a.u. after    2 cycles
 SCF Done:  E(RwB97XD) =  -1025.66731822     a.u. after    2 cycles
 SCF Done:  E(RwB97XD) =  -1025.66731822     a.u. after    2 cycles
 SCF Done:  E(RwB97XD) =  -1025.66731822     a.u. after    2 cycles
 SCF Done:  E(RwB97XD) =  -1025.66731822     a.u. after    2 cycles
 SCF Done:  E(RwB97XD) =  -1025.66731822     a.u. after    2 cycles
 SCF Done:  E(RwB97XD) =  -1025.66731822     a.u. after    2 cycles
 Optimization completed.
    -- Stationary point found.
 Normal termination of Gaussian 16 at Tue Aug  9 23:25:12 2022.

 ---------------------------------------------------------------------
 #T Geom=AllCheck Guess=TCheck SCRF=Check GenChk RwB97XD/def2SVPP Freq
 ---------------------------------------------------------------------
 Structure from the checkpoint file:  "/scratch/user/peterchao1/peterchao1/6113325_1660079103000000807784384/Gau-109717.chk"
 -----
 dimer
 -----
 Charge =  0 Multiplicity = 1

                         Standard orientation:
 ---------------------------------------------------------------------
 Center     Atomic      Atomic             Coordinates (Angstroms)
 Number     Number       Type             X           Y           Z
 ---------------------------------------------------------------------
      1          6           0       -3.797480   -0.790776   -1.359487
      2          6           0       -2.910834   -0.022550   -0.385429
      3          6           0       -2.148367    1.096057   -1.115009
      4          8           0       -1.513977    2.015077   -0.270060
      5          6           0       -3.722719    0.528825    0.807188
      6          8           0       -2.915378    1.021674    1.822062
      7          7           0       -1.923879   -1.011110    0.222889
      8          8           0       -0.744672   -0.701473    0.219959
      9          8           0       -2.353646   -2.031082    0.690490
     10          1           0       -3.218086   -1.149568   -2.227321
     11          1           0       -4.593082   -0.123803   -1.729726
     12          1           0       -4.265714   -1.654442   -0.864294
     13          1           0       -2.910503    1.651271   -1.690043
     14          1           0       -1.439403    0.656012   -1.837712
     15          1           0       -0.576421    1.765441   -0.153356
     16          1           0       -4.336251   -0.283141    1.230610
     17          1           0       -4.413291    1.293246    0.389699
     18          1           0       -2.327703    1.683795    1.410623
     19          6           0        3.883843   -0.148224   -1.328520
     20          6           0        2.851314   -0.305308   -0.216432
     21          6           0        2.361268   -1.770883   -0.119862
     22          8           0        1.579827   -2.047040    0.991584
     23          6           0        3.376762    0.184661    1.138049
     24          8           0        3.878311    1.488886    1.107729
     25          7           0        1.646586    0.540992   -0.616462
     26          8           0        1.234486    1.374689    0.175208
     27          8           0        1.144321    0.336240   -1.692758
     28          1           0        3.486969   -0.495055   -2.295181
     29          1           0        4.774607   -0.744432   -1.072551
     30          1           0        4.196325    0.904255   -1.413196
     31          1           0        3.271607   -2.390040   -0.043739
     32          1           0        1.861795   -2.030123   -1.074344
     33          1           0        0.666920   -1.737153    0.843050
     34          1           0        4.214016   -0.480202    1.407950
     35          1           0        2.592723    0.048234    1.900806
     36          1           0        3.119644    2.089956    1.097031
 ---------------------------------------------------------------------

 SCF Done:  E(RwB97XD) =  -1025.66731822     a.u. after    1 cycles

 The electronic state is 1-A.
 Alpha  occ. eigenvalues --  -19.32210 -19.32026 -19.31672 -19.31496 -19.26566
 Alpha  occ. eigenvalues --  -19.25740 -19.25116 -19.24716 -14.70287 -14.70091
 Alpha  occ. eigenvalues --  -10.37598 -10.37172 -10.36330 -10.36137 -10.35947
 Alpha  occ. eigenvalues --  -10.35060 -10.32078 -10.31104  -1.36447  -1.36116
 Alpha  occ. eigenvalues --   -1.18519  -1.18281  -1.13752  -1.12662  -1.12117
 Alpha  occ. eigenvalues --   -1.11430  -0.96088  -0.95614  -0.81536  -0.80998
 Alpha  occ. eigenvalues --   -0.79607  -0.79289  -0.78553  -0.78034  -0.70072
 Alpha  occ. eigenvalues --   -0.68941  -0.66719  -0.65988  -0.65032  -0.64130
 Alpha  occ. eigenvalues --   -0.63520  -0.63126  -0.61988  -0.61356  -0.59469
 Alpha  occ. eigenvalues --   -0.57328  -0.56267  -0.55188  -0.54486  -0.53868
 Alpha  occ. eigenvalues --   -0.52531  -0.52270  -0.51506  -0.50880  -0.50007
 Alpha  occ. eigenvalues --   -0.49216  -0.48752  -0.47624  -0.45628  -0.43889
 Alpha  occ. eigenvalues --   -0.43787  -0.42952  -0.42118  -0.41726  -0.41494
 Alpha  occ. eigenvalues --   -0.41200  -0.40327  -0.40076  -0.37758  -0.37097
 Alpha  occ. eigenvalues --   -0.36018  -0.35495
 Alpha virt. eigenvalues --   -0.01842  -0.01100   0.12262   0.13118   0.14007
 Alpha virt. eigenvalues --    0.14671   0.15710   0.16716   0.17589   0.18097
 Alpha virt. eigenvalues --    0.20099   0.20244   0.20832   0.21298   0.21723

 Mulliken charges:
               1
     1  C   -0.271223
     2  C   -0.287026
     3  C    0.082270
     4  O   -0.524726
     5  C    0.102484
     6  O   -0.491782
     7  N    0.287200
     8  O   -0.293059
     9  O   -0.212269
    10  H    0.141179
    11  H    0.141884
    12  H    0.161718
    13  H    0.112410
    14  H    0.131686
    15  H    0.343749
    16  H    0.125169
    17  H    0.105898
    18  H    0.331987
    19  C   -0.261252
    20  C   -0.261040
    21  C    0.075264
    22  O   -0.484396
    23  C    0.093032
    24  O   -0.489142
    25  N    0.269524
    26  O   -0.279522
    27  O   -0.222039
    28  H    0.149201
    29  H    0.138304
    30  H    0.148499
    31  H    0.117457
    32  H    0.119850
    33  H    0.326031
    34  H    0.114524
    35  H    0.129152
    36  H    0.329007
 Sum of Mulliken charges =  -0.00000

 Dipole moment (field-independent basis, Debye):
    X=             -0.8803    Y=             -0.2845    Z=             -4.2492  Tot=              4.3488
  Exact polarizability: 145.868  -0.720 115.628   2.072   1.440 112.022
 Approx polarizability: 145.145   5.562 137.483   1.643   4.314 136.731
   1 Symmetry operations used in ECPInt.
 ECPInt:  NShTT=   10440 NPrTT=   41904 LenC2=    9748 LenP2D=   26761.
 LDataN:  DoStor=T MaxTD1= 6 Len=  172
 Calling FoFJK, ICntrl=    100127 FMM=F ISym2X=0 I1Cent= 0 IOpClX= 0 NMat=1 NMatS=1 NMatT=0.
 Full mass-weighted force constant matrix:
 Low frequencies ---   -2.8620   -0.0010   -0.0009   -0.0003    2.5980    6.7165
 Low frequencies ---   20.7992   33.9327   41.9692
 Diagonal vibrational polarizability:

                      1                      2                      3
                      A                      A                      A
 Frequencies --     20.7704                33.8976                41.9593
 Red. masses --      5.6207                 5.7350                 8.0576
 Frc consts  --      0.0014                 0.0039                 0.0084
 IR Inten    --      0.3407                 1.3378                 0.6724

                      4                      5                      6
                      A                      A                      A
 Frequencies --     55.0150                72.7255                91.7859
 Red. masses --      7.6247                 6.0915                 5.4753
 Frc consts  --      0.0136                 0.0190                 0.0272
 IR Inten    --      1.5985                 6.8312                 1.9996

                      7                      8                      9
                      A                      A                      A
 Frequencies --    109.5208               125.1567               144.1031
 Red. masses --      6.8383                 8.9091                 5.7051
 Frc consts  --      0.0483                 0.0822                 0.0698
 IR Inten    --      1.4436                 1.4475                 1.0591

                     10                     11                     12
                      A                      A                      A
 Frequencies --    176.7246               189.9971               207.2215
 Red. masses --      3.3743                 4.5287                 4.6911
 Frc consts  --      0.0621                 0.0963                 0.1187
 IR Inten    --      4.5178                 3.1156                 1.8576

                     13                     14                     15
                      A                      A                      A
 Frequencies --    214.4529               220.0399               229.9564
 Red. masses --      1.2324                 2.0250                 1.6751
 Frc consts  --      0.0334                 0.0578                 0.0522
 IR Inten    --      0.1410                 1.2669                 0.7549

                     16                     17                     18
                      A                      A                      A
 Frequencies --    241.6642               278.7964               282.2974
 Red. masses --      2.7452                 3.6286                 4.4019
 Frc consts  --      0.0945                 0.1662                 0.2067
 IR Inten    --      4.2918                 4.5150                 3.9677

                     19                     20                     21
                      A                      A                      A
 Frequencies --    306.6416               308.8235               322.2473
 Red. masses --      3.2413                 2.2670                 2.9461
 Frc consts  --      0.1796                 0.1274                 0.1802
 IR Inten    --      2.9231                 0.9192                 4.0034

                     22                     23                     24
                      A                      A                      A
 Frequencies --    355.0533               382.3143               386.0879
 Red. masses --      3.1924                 2.4835                 2.7686
 Frc consts  --      0.2371                 0.2139                 0.2432
 IR Inten    --      0.3087                 1.0897                14.8375

                     25                     26                     27
                      A                      A                      A
 Frequencies --    406.2388               420.7723               497.2766
 Red. masses --      5.5844                 6.1119                 1.3427
 Frc consts  --      0.5430                 0.6376                 0.1956
 IR Inten    --      4.7462                 5.4459                82.3931

                     28                     29                     30
                      A                      A                      A
 Frequencies --    500.8184               526.8597               565.2804
 Red. masses --      2.5263                 4.7594                 1.3885
 Frc consts  --      0.3733                 0.7784                 0.2614
 IR Inten    --     49.7519                 1.8487               177.0187

                     31                     32                     33
                      A                      A                      A
 Frequencies --    583.1297               592.1434               628.0133
 Red. masses --      3.3438                 2.4123                 3.6691
 Frc consts  --      0.6699                 0.4984                 0.8526
 IR Inten    --     26.5174                50.4231                 8.1660

                     34                     35                     36
                      A                      A                      A
 Frequencies --    630.6879               646.7874               736.9349
 Red. masses --      4.4832                 1.1493                 1.1948
 Frc consts  --      1.0507                 0.2833                 0.3823
 IR Inten    --     34.4534                87.8209               140.1439

                     37                     38                     39
                      A                      A                      A
 Frequencies --    778.7336               788.2878               842.9683
 Red. masses --      4.3762                 5.5263                 2.8470
 Frc consts  --      1.5636                 2.0233                 1.1920
 IR Inten    --     11.6704                 1.6194                 2.8433

                     40                     41                     42
                      A                      A                      A
 Frequencies --    853.6150               917.7673               919.1573
 Red. masses --      2.7215                 1.8479                 3.5881
 Frc consts  --      1.1684                 0.9171                 1.7860
 IR Inten    --      7.4479                 8.3902                36.7030

                     43                     44                     45
                      A                      A                      A
 Frequencies --    923.4033               932.2258               965.3443
 Red. masses --      4.6102                 2.1786                 1.5424
 Frc consts  --      2.3161                 1.1155                 0.8468
 IR Inten    --      6.0156                20.0796                12.3034

                     46                     47                     48
                      A                      A                      A
 Frequencies --    996.9139              1022.4336              1023.1216
 Red. masses --      1.4369                 1.4788                 1.4437
 Frc consts  --      0.8414                 0.9108                 0.8904
 IR Inten    --      2.7973                 7.9691                 3.7364

                     49                     50                     51
                      A                      A                      A
 Frequencies --   1134.0186              1150.8743              1159.8499
 Red. masses --      1.6889                 5.0395                 5.2502
 Frc consts  --      1.2796                 3.9328                 4.1613
 IR Inten    --     71.6257                58.3977                37.6071

                     52                     53                     54
                      A                      A                      A
 Frequencies --   1161.8736              1184.5398              1187.5722
 Red. masses --      3.3445                 4.5739                 3.2079
 Frc consts  --      2.6601                 3.7812                 2.6655
 IR Inten    --     11.3489               102.5509                72.5283

                     55                     56                     57
                      A                      A                      A
 Frequencies --   1203.9817              1211.9317              1228.6465
 Red. masses --      2.1086                 2.7282                 1.5549
 Frc consts  --      1.8009                 2.3610                 1.3830
 IR Inten    --     40.0944                16.7828                 9.3172

                     58                     59                     60
                      A                      A                      A
 Frequencies --   1231.0476              1285.4520              1314.4628
 Red. masses --      1.4375                 1.6922                 1.4951
 Frc consts  --      1.2836                 1.6475                 1.5220
 IR Inten    --     36.2698                13.0697                15.5670

                     61                     62                     63
                      A                      A                      A
 Frequencies --   1321.6751              1323.3006              1395.2815
 Red. masses --      1.4996                 1.5729                 1.2784
 Frc consts  --      1.5434                 1.6228                 1.4664
 IR Inten    --      5.2979                10.1908                 3.6079

                     64                     65                     66
                      A                      A                      A
 Frequencies --   1403.8016              1416.3923              1417.4897
 Red. masses --      1.2987                 1.3103                 1.2960
 Frc consts  --      1.5079                 1.5488                 1.5342
 IR Inten    --     12.9767                40.7331                 4.2652

                     67                     68                     69
                      A                      A                      A
 Frequencies --   1418.5233              1442.1394              1444.4928
 Red. masses --      1.3331                 1.1678                 1.3303
 Frc consts  --      1.5805                 1.4309                 1.6354
 IR Inten    --     14.5401                19.8236                24.8080

                     70                     71                     72
                      A                      A                      A
 Frequencies --   1451.3395              1461.0622              1479.9186
 Red. masses --      1.4742                 1.1820                 1.1157
 Frc consts  --      1.8295                 1.4866                 1.4397
 IR Inten    --      9.5294                26.6275                11.5074

                     73                     74                     75
                      A                      A                      A
 Frequencies --   1480.5331              1488.1296              1494.1353
 Red. masses --      1.0798                 1.1385                 1.0718
 Frc consts  --      1.3946                 1.4854                 1.4097
 IR Inten    --     20.2067                31.1963                 2.8203

                     76                     77                     78
                      A                      A                      A
 Frequencies --   1495.0259              1498.5185              1499.0153
 Red. masses --      1.1690                 1.2642                 1.0736
 Frc consts  --      1.5394                 1.6726                 1.4213
 IR Inten    --     39.6055                19.4023                17.3274

                     79                     80                     81
                      A                      A                      A
 Frequencies --   1499.5080              1513.6191              1519.8908
 Red. masses --      1.1568                 1.1432                 2.9791
 Frc consts  --      1.5325                 1.5431                 4.0547
 IR Inten    --     10.8224                31.7846               123.5607

                     82                     83                     84
                      A                      A                      A
 Frequencies --   1532.0443              1740.1555              1763.5138
 Red. masses --      4.3095                12.1922                13.0729
 Frc consts  --      5.9597                21.7525                23.9541
 IR Inten    --    137.4335               230.9797               376.8483

                     85                     86                     87
                      A                      A                      A
 Frequencies --   2991.9899              3028.8833              3050.1925
 Red. masses --      1.0709                 1.0648                 1.0465
 Frc consts  --      5.6485                 5.7556                 5.7364
 IR Inten    --     50.3517                28.9626                 2.2269

                     88                     89                     90
                      A                      A                      A
 Frequencies --   3055.2681              3059.4367              3076.4341
 Red. masses --      1.0527                 1.0367                 1.0611
 Frc consts  --      5.7899                 5.7174                 5.9173
 IR Inten    --     41.7801                 8.5731                15.4515

                     91                     92                     93
                      A                      A                      A
 Frequencies --   3108.4969              3116.3742              3118.4767
 Red. masses --      1.1044                 1.1082                 1.0992
 Frc consts  --      6.2877                 6.3414                 6.2982
 IR Inten    --     23.5336                11.0872                14.5525

                     94                     95                     96
                      A                      A                      A
 Frequencies --   3138.6333              3145.4091              3159.6868
 Red. masses --      1.1096                 1.1049                 1.1048
 Frc consts  --      6.4401                 6.4409                 6.4987
 IR Inten    --     13.6348                 8.6339                 5.5349

                     97                     98                     99
                      A                      A                      A
 Frequencies --   3169.7458              3172.2808              3594.4435
 Red. masses --      1.1072                 1.1051                 1.0674
 Frc consts  --      6.5540                 6.5521                 8.1251
 IR Inten    --      2.2327                 1.4128               526.8963

                    100                    101                    102
                      A                      A                      A
 Frequencies --   3621.4895              3631.7856              3770.1718
 Red. masses --      1.0648                 1.0661                 1.0650
 Frc consts  --      8.2276                 8.2847                 8.9189
 IR Inten    --     91.8523               949.9043                53.1100

                           ! Non-Optimized Parameters !
 Normal termination of Gaussian 16 at Tue Aug  9 23:37:55 2022.
